Gaussian input prepared by ASE                                          
FOpt      RBMK                                                        6-31+G              
Number of atoms                            I               19
Info1-9                                    I   N=           9
          29          29           0           0           0         110
           2          18        -402
Full Title                                 C   N=           3
Gaussian input prepared by ASE      
Route                                      C   N=           3
#P bmk/6-31+g opt(modredun,calcfc)  
Charge                                     I                0
Multiplicity                               I                1
Number of electrons                        I               70
Number of alpha electrons                  I               35
Number of beta electrons                   I               35
Number of basis functions                  I              137
Number of independent functions            I              137
Number of point charges in /Mol/           I                0
Number of translation vectors              I                0
Atomic numbers                             I   N=          19
           6           1           1           1           6           8
           7           1           6           1           1           6
           8           7           1           6           1           1
           1
Nuclear charges                            R   N=          19
  6.00000000E+00  1.00000000E+00  1.00000000E+00  1.00000000E+00  6.00000000E+00
  8.00000000E+00  7.00000000E+00  1.00000000E+00  6.00000000E+00  1.00000000E+00
  1.00000000E+00  6.00000000E+00  8.00000000E+00  7.00000000E+00  1.00000000E+00
  6.00000000E+00  1.00000000E+00  1.00000000E+00  1.00000000E+00
Current cartesian coordinates              R   N=          57
 -6.45459559E+00  1.73397088E+00 -3.53724972E-06 -5.67967588E+00  3.65398462E+00
 -5.85041520E-06 -7.65041445E+00  1.47878889E+00 -1.67353187E+00 -7.65041506E+00
  1.47879325E+00  1.67352504E+00 -4.41972538E+00 -2.92584417E-01 -5.71815260E-07
 -4.94805695E+00 -2.59132643E+00  6.81339665E-08 -1.98449191E+00  5.19116374E-01
  1.48635126E-06 -1.50080357E+00  2.37039063E+00  1.44454775E-06  9.51524320E-02
 -1.25913582E+00  3.98591533E-06 -7.79030098E-03 -2.49406326E+00 -1.67143085E+00
 -7.78967967E-03 -2.49405834E+00  1.67144256E+00  2.57430897E+00  2.29527695E-01
  1.71146978E-06  2.59763588E+00  2.58454455E+00  3.56319088E-06  4.71958247E+00
 -1.16748320E+00 -2.01042420E-06  4.60784812E+00 -3.07093448E+00 -5.35461146E-06
  7.20782789E+00  3.12149126E-02 -3.32814131E-06  8.65826554E+00 -1.44096389E+00
  9.19739925E-06  7.43535477E+00  1.22645331E+00 -1.67758030E+00  7.43534519E+00
  1.22647255E+00  1.67756102E+00
Number of symbols in /Mol/                 I                0
Redundant internal dimensions              I   N=           4
          80          18          30          32
Redundant internal coordinate indices      I   N=         320
           1           2           0           0           1           3
           0           0           1           4           0           0
           1           5           0           0           5           6
           0           0           5           7           0           0
           7           8           0           0           7           9
           0           0           9          10           0           0
           9          11           0           0           9          12
           0           0          12          13           0           0
          12          14           0           0          14          15
           0           0          14          16           0           0
          16          17           0           0          16          18
           0           0          16          19           0           0
           2           1           3           0           2           1
           4           0           2           1           5           0
           3           1           4           0           3           1
           5           0           4           1           5           0
           1           5           6           0           1           5
           7           0           6           5           7           0
           5           7           8           0           5           7
           9           0           8           7           9           0
           7           9          10           0           7           9
          11           0           7           9          12           0
          10           9          11           0          10           9
          12           0          11           9          12           0
           9          12          13           0           9          12
          14           0          13          12          14           0
          12          14          15           0          12          14
          16           0          15          14          16           0
          14          16          17           0          14          16
          18           0          14          16          19           0
          17          16          18           0          17          16
          19           0          18          16          19           0
           2           1           5           6           2           1
           5           7           3           1           5           6
           3           1           5           7           4           1
           5           6           4           1           5           7
           1           5           7           8           1           5
           7           9           6           5           7           8
           6           5           7           9           5           7
           9          10           5           7           9          11
           5           7           9          12           8           7
           9          10           8           7           9          11
           8           7           9          12           7           9
          12          13           7           9          12          14
          10           9          12          13          10           9
          12          14          11           9          12          13
          11           9          12          14           9          12
          14          15           9          12          14          16
          13          12          14          15          13          12
          14          16          12          14          16          17
          12          14          16          18          12          14
          16          19          15          14          16          17
          15          14          16          18          15          14
          16          19
Redundant internal coordinates             R   N=          80
  2.07049591E+00  2.07263061E+00  2.07263063E+00  2.87186754E+00  2.35867528E+00
  2.56694765E+00  1.91341861E+00  2.73625683E+00  2.08070598E+00  2.08070604E+00
  2.89177042E+00  2.35513239E+00  2.56004645E+00  1.90672791E+00  2.76192731E+00
  2.06665909E+00  2.07234838E+00  2.07234821E+00  1.90721334E+00  1.90721329E+00
  1.97054026E+00  1.87960544E+00  1.89855834E+00  1.89855836E+00  2.12823545E+00
  2.03650737E+00  2.11844248E+00  2.14809100E+00  2.11242517E+00  2.02266914E+00
  1.92635307E+00  1.92635323E+00  1.89339326E+00  1.86564011E+00  1.92618169E+00
  1.92618145E+00  2.12146752E+00  2.02360511E+00  2.13811267E+00  2.08938391E+00
  2.11543473E+00  2.07836667E+00  1.89981899E+00  1.92754477E+00  1.92754383E+00
  1.91112848E+00  1.91112855E+00  1.88660776E+00 -3.14159155E+00  1.15491209E-06
 -1.02140417E+00  2.12018854E+00  1.02140641E+00 -2.12018619E+00  2.03770315E-07
 -3.14159248E+00 -3.14159240E+00  2.23020159E-07  1.02922258E+00 -1.02922581E+00
  3.14159113E+00 -2.11237011E+00  2.11236681E+00 -1.55387034E-06  2.63173238E-06
 -3.14159019E+00  2.11247694E+00 -1.02911589E+00 -2.11247173E+00  1.02912075E+00
  1.35698781E-06 -3.14159216E+00 -3.14159147E+00  3.17153285E-07  3.14158468E+00
 -1.04296068E+00  1.04294520E+00 -8.83945373E-06  2.09863111E+00 -2.09864831E+00
ZRed-IntVec                                I   N=          80
           0           0           0           0           0           0
           0           0           0           0           0           0
           0           0           0           0           0           0
           0           0           0           0           0           0
           0           0           0           0           0           0
           0           0           0           0           0           0
           0           0           0           0           0           0
           0           0           0           0           0           0
           0           0           0           0           0           0
           0           0           0           0           0           0
           0           0           0           0           0           0
           0           0           0           0           0           0
           0           0           0           0           0           0
           0           0
ZRed-FPVec                                 R   N=          80
  0.00000000E+00  0.00000000E+00  0.00000000E+00  0.00000000E+00  0.00000000E+00
  0.00000000E+00  0.00000000E+00  0.00000000E+00  0.00000000E+00  0.00000000E+00
  0.00000000E+00  0.00000000E+00  0.00000000E+00  0.00000000E+00  0.00000000E+00
  0.00000000E+00  0.00000000E+00  0.00000000E+00  0.00000000E+00  0.00000000E+00
  0.00000000E+00  0.00000000E+00  0.00000000E+00  0.00000000E+00  0.00000000E+00
  0.00000000E+00  0.00000000E+00  0.00000000E+00  0.00000000E+00  0.00000000E+00
  0.00000000E+00  0.00000000E+00  0.00000000E+00  0.00000000E+00  0.00000000E+00
  0.00000000E+00  0.00000000E+00  0.00000000E+00  0.00000000E+00  0.00000000E+00
  0.00000000E+00  0.00000000E+00  0.00000000E+00  0.00000000E+00  0.00000000E+00
  0.00000000E+00  0.00000000E+00  0.00000000E+00  0.00000000E+00  0.00000000E+00
  0.00000000E+00  0.00000000E+00  0.00000000E+00  0.00000000E+00  0.00000000E+00
  0.00000000E+00  0.00000000E+00  0.00000000E+00  0.00000000E+00  0.00000000E+00
  0.00000000E+00  0.00000000E+00  0.00000000E+00  0.00000000E+00  0.00000000E+00
  0.00000000E+00  0.00000000E+00  0.00000000E+00  0.00000000E+00  0.00000000E+00
  0.00000000E+00  0.00000000E+00  0.00000000E+00  0.00000000E+00  0.00000000E+00
  0.00000000E+00  0.00000000E+00  0.00000000E+00  0.00000000E+00  0.00000000E+00
ZRed-Constraint1                           R   N=          80
  2.07083590E+00  2.07215889E+00  2.07215939E+00  2.88103835E+00  2.35893901E+00
  2.57413339E+00  1.91324034E+00  2.74404644E+00  2.08061917E+00  2.08061299E+00
  2.89829879E+00  2.35348405E+00  2.56674097E+00  1.90721167E+00  2.77130065E+00
  2.06634881E+00  2.07224054E+00  2.07225122E+00  1.90862027E+00  1.90862685E+00
  1.97065633E+00  1.88246979E+00  1.89570689E+00  1.89572076E+00  2.11809762E+00
  2.05380748E+00  2.11128021E+00  2.15109879E+00  2.10192948E+00  2.03015704E+00
  1.92115735E+00  1.92115069E+00  1.91327649E+00  1.86329712E+00  1.92224578E+00
  1.92226948E+00  2.12329283E+00  2.01666668E+00  2.14322580E+00  2.08022526E+00
  2.13489090E+00  2.06806915E+00  1.89604703E+00  1.92712416E+00  1.92714636E+00
  1.91223866E+00  1.91224280E+00  1.88904306E+00 -3.14149803E+00  8.50061696E-05
 -1.02145386E+00  2.12012917E+00  1.02162504E+00 -2.11997724E+00 -2.80415149E-06
 -3.14158593E+00  3.14158027E+00 -2.85830530E-06  1.02475759E+00 -1.02448014E+00
 -3.14146651E+00 -2.11682618E+00  2.11712141E+00  1.35029448E-04 -1.78859373E-04
  3.14144213E+00  2.11612639E+00 -1.02543793E+00 -2.11649099E+00  1.02513000E+00
 -7.17225706E-05  3.14152705E+00  3.14154962E+00 -3.69171540E-05 -3.14145151E+00
 -1.04407438E+00  1.04433812E+00  1.47218783E-04  2.09752435E+00 -2.09724846E+00
ZRed-Constraint2                           R   N=          80
  0.00000000E+00  0.00000000E+00  0.00000000E+00  0.00000000E+00  0.00000000E+00
  0.00000000E+00  0.00000000E+00  0.00000000E+00  0.00000000E+00  0.00000000E+00
  0.00000000E+00  0.00000000E+00  0.00000000E+00  0.00000000E+00  0.00000000E+00
  0.00000000E+00  0.00000000E+00  0.00000000E+00  0.00000000E+00  0.00000000E+00
  0.00000000E+00  0.00000000E+00  0.00000000E+00  0.00000000E+00  0.00000000E+00
  0.00000000E+00  0.00000000E+00  0.00000000E+00  0.00000000E+00  0.00000000E+00
  0.00000000E+00  0.00000000E+00  0.00000000E+00  0.00000000E+00  0.00000000E+00
  0.00000000E+00  0.00000000E+00  0.00000000E+00  0.00000000E+00  0.00000000E+00
  0.00000000E+00  0.00000000E+00  0.00000000E+00  0.00000000E+00  0.00000000E+00
  0.00000000E+00  0.00000000E+00  0.00000000E+00  0.00000000E+00  0.00000000E+00
  0.00000000E+00  0.00000000E+00  0.00000000E+00  0.00000000E+00  0.00000000E+00
  0.00000000E+00  0.00000000E+00  0.00000000E+00  0.00000000E+00  0.00000000E+00
  0.00000000E+00  0.00000000E+00  0.00000000E+00  0.00000000E+00  0.00000000E+00
  0.00000000E+00  0.00000000E+00  0.00000000E+00  0.00000000E+00  0.00000000E+00
  0.00000000E+00  0.00000000E+00  0.00000000E+00  0.00000000E+00  0.00000000E+00
  0.00000000E+00  0.00000000E+00  0.00000000E+00  0.00000000E+00  0.00000000E+00
Force Field                                I                0
Atom Types                                 C   N=          19
                                                            
                                                            
                                                            
                                                
Int Atom Types                             I   N=          19
           0           0           0           0           0           0
           0           0           0           0           0           0
           0           0           0           0           0           0
           0
MM charges                                 R   N=          19
  0.00000000E+00  0.00000000E+00  0.00000000E+00  0.00000000E+00  0.00000000E+00
  0.00000000E+00  0.00000000E+00  0.00000000E+00  0.00000000E+00  0.00000000E+00
  0.00000000E+00  0.00000000E+00  0.00000000E+00  0.00000000E+00  0.00000000E+00
  0.00000000E+00  0.00000000E+00  0.00000000E+00  0.00000000E+00
Integer atomic weights                     I   N=          19
          12           1           1           1          12          16
          14           1          12           1           1          12
          16          14           1          12           1           1
           1
Real atomic weights                        R   N=          19
  1.20000000E+01  1.00782504E+00  1.00782504E+00  1.00782504E+00  1.20000000E+01
  1.59949146E+01  1.40030740E+01  1.00782504E+00  1.20000000E+01  1.00782504E+00
  1.00782504E+00  1.20000000E+01  1.59949146E+01  1.40030740E+01  1.00782504E+00
  1.20000000E+01  1.00782504E+00  1.00782504E+00  1.00782504E+00
Atom fragment info                         I   N=          19
           0           0           0           0           0           0
           0           0           0           0           0           0
           0           0           0           0           0           0
           0
Atom residue num                           I   N=          19
           0           0           0           0           0           0
           0           0           0           0           0           0
           0           0           0           0           0           0
           0
Nuclear spins                              I   N=          19
           0           1           1           1           0           0
           2           1           0           1           1           0
           0           2           1           0           1           1
           1
Nuclear ZEff                               R   N=          19
 -3.60000000E+00 -1.00000000E+00 -1.00000000E+00 -1.00000000E+00 -3.60000000E+00
 -5.60000000E+00 -4.55000000E+00 -1.00000000E+00 -3.60000000E+00 -1.00000000E+00
 -1.00000000E+00 -3.60000000E+00 -5.60000000E+00 -4.55000000E+00 -1.00000000E+00
 -3.60000000E+00 -1.00000000E+00 -1.00000000E+00 -1.00000000E+00
Nuclear ZNuc                               R   N=          19
  6.00000000E+00  1.00000000E+00  1.00000000E+00  1.00000000E+00  6.00000000E+00
  8.00000000E+00  7.00000000E+00  1.00000000E+00  6.00000000E+00  1.00000000E+00
  1.00000000E+00  6.00000000E+00  8.00000000E+00  7.00000000E+00  1.00000000E+00
  6.00000000E+00  1.00000000E+00  1.00000000E+00  1.00000000E+00
Nuclear QMom                               R   N=          19
  0.00000000E+00  0.00000000E+00  0.00000000E+00  0.00000000E+00  0.00000000E+00
  0.00000000E+00  2.04400000E+00  0.00000000E+00  0.00000000E+00  0.00000000E+00
  0.00000000E+00  0.00000000E+00  0.00000000E+00  2.04400000E+00  0.00000000E+00
  0.00000000E+00  0.00000000E+00  0.00000000E+00  0.00000000E+00
Nuclear GFac                               R   N=          19
  0.00000000E+00  2.79284600E+00  2.79284600E+00  2.79284600E+00  0.00000000E+00
  0.00000000E+00  4.03761000E-01  2.79284600E+00  0.00000000E+00  2.79284600E+00
  2.79284600E+00  0.00000000E+00  0.00000000E+00  4.03761000E-01  2.79284600E+00
  0.00000000E+00  2.79284600E+00  2.79284600E+00  2.79284600E+00
MicOpt                                     I   N=          19
          -1          -1          -1          -1          -1          -1
          -1          -1          -1          -1          -1          -1
          -1          -1          -1          -1          -1          -1
          -1
Number of residues                         I                0
Number of secondary structures             I                0
Number of contracted shells                I               56
Number of primitive shells                 I              139
Pure/Cartesian d shells                    I                1
Pure/Cartesian f shells                    I                0
Highest angular momentum                   I                1
Largest degree of contraction              I                6
Shell types                                I   N=          56
           0          -1          -1          -1           0           0
           0           0           0           0           0          -1
          -1          -1           0          -1          -1          -1
           0          -1          -1          -1           0           0
           0          -1          -1          -1           0           0
           0           0           0          -1          -1          -1
           0          -1          -1          -1           0          -1
          -1          -1           0           0           0          -1
          -1          -1           0           0           0           0
           0           0
Number of primitives per shell             I   N=          56
           6           3           1           1           3           1
           3           1           3           1           6           3
           1           1           6           3           1           1
           6           3           1           1           3           1
           6           3           1           1           3           1
           3           1           6           3           1           1
           6           3           1           1           6           3
           1           1           3           1           6           3
           1           1           3           1           3           1
           3           1
Shell to atom map                          I   N=          56
           1           1           1           1           2           2
           3           3           4           4           5           5
           5           5           6           6           6           6
           7           7           7           7           8           8
           9           9           9           9          10          10
          11          11          12          12          12          12
          13          13          13          13          14          14
          14          14          15          15          16          16
          16          16          17          17          18          18
          19          19
Primitive exponents                        R   N=         139
  3.04752488E+03  4.57369518E+02  1.03948685E+02  2.92101553E+01  9.28666296E+00
  3.16392696E+00  7.86827235E+00  1.88128854E+00  5.44249258E-01  1.68714478E-01
  4.38000000E-02  1.87311370E+01  2.82539436E+00  6.40121692E-01  1.61277759E-01
  1.87311370E+01  2.82539436E+00  6.40121692E-01  1.61277759E-01  1.87311370E+01
  2.82539436E+00  6.40121692E-01  1.61277759E-01  3.04752488E+03  4.57369518E+02
  1.03948685E+02  2.92101553E+01  9.28666296E+00  3.16392696E+00  7.86827235E+00
  1.88128854E+00  5.44249258E-01  1.68714478E-01  4.38000000E-02  5.48467166E+03
  8.25234946E+02  1.88046958E+02  5.29645000E+01  1.68975704E+01  5.79963534E+00
  1.55396162E+01  3.59993359E+00  1.01376175E+00  2.70005823E-01  8.45000000E-02
  4.17351146E+03  6.27457911E+02  1.42902093E+02  4.02343293E+01  1.28202129E+01
  4.39043701E+00  1.16263619E+01  2.71627981E+00  7.72218397E-01  2.12031498E-01
  6.39000000E-02  1.87311370E+01  2.82539436E+00  6.40121692E-01  1.61277759E-01
  3.04752488E+03  4.57369518E+02  1.03948685E+02  2.92101553E+01  9.28666296E+00
  3.16392696E+00  7.86827235E+00  1.88128854E+00  5.44249258E-01  1.68714478E-01
  4.38000000E-02  1.87311370E+01  2.82539436E+00  6.40121692E-01  1.61277759E-01
  1.87311370E+01  2.82539436E+00  6.40121692E-01  1.61277759E-01  3.04752488E+03
  4.57369518E+02  1.03948685E+02  2.92101553E+01  9.28666296E+00  3.16392696E+00
  7.86827235E+00  1.88128854E+00  5.44249258E-01  1.68714478E-01  4.38000000E-02
  5.48467166E+03  8.25234946E+02  1.88046958E+02  5.29645000E+01  1.68975704E+01
  5.79963534E+00  1.55396162E+01  3.59993359E+00  1.01376175E+00  2.70005823E-01
  8.45000000E-02  4.17351146E+03  6.27457911E+02  1.42902093E+02  4.02343293E+01
  1.28202129E+01  4.39043701E+00  1.16263619E+01  2.71627981E+00  7.72218397E-01
  2.12031498E-01  6.39000000E-02  1.87311370E+01  2.82539436E+00  6.40121692E-01
  1.61277759E-01  3.04752488E+03  4.57369518E+02  1.03948685E+02  2.92101553E+01
  9.28666296E+00  3.16392696E+00  7.86827235E+00  1.88128854E+00  5.44249258E-01
  1.68714478E-01  4.38000000E-02  1.87311370E+01  2.82539436E+00  6.40121692E-01
  1.61277759E-01  1.87311370E+01  2.82539436E+00  6.40121692E-01  1.61277759E-01
  1.87311370E+01  2.82539436E+00  6.40121692E-01  1.61277759E-01
Contraction coefficients                   R   N=         139
  1.83473713E-03  1.40373228E-02  6.88426223E-02  2.32184443E-01  4.67941348E-01
  3.62311985E-01 -1.19332420E-01 -1.60854152E-01  1.14345644E+00  1.00000000E+00
  1.00000000E+00  3.34946043E-02  2.34726953E-01  8.13757326E-01  1.00000000E+00
  3.34946043E-02  2.34726953E-01  8.13757326E-01  1.00000000E+00  3.34946043E-02
  2.34726953E-01  8.13757326E-01  1.00000000E+00  1.83473713E-03  1.40373228E-02
  6.88426223E-02  2.32184443E-01  4.67941348E-01  3.62311985E-01 -1.19332420E-01
 -1.60854152E-01  1.14345644E+00  1.00000000E+00  1.00000000E+00  1.83107443E-03
  1.39501722E-02  6.84450781E-02  2.32714336E-01  4.70192898E-01  3.58520853E-01
 -1.10777550E-01 -1.48026263E-01  1.13076702E+00  1.00000000E+00  1.00000000E+00
  1.83477216E-03  1.39946270E-02  6.85865518E-02  2.32240873E-01  4.69069948E-01
  3.60455199E-01 -1.14961182E-01 -1.69117479E-01  1.14585195E+00  1.00000000E+00
  1.00000000E+00  3.34946043E-02  2.34726953E-01  8.13757326E-01  1.00000000E+00
  1.83473713E-03  1.40373228E-02  6.88426223E-02  2.32184443E-01  4.67941348E-01
  3.62311985E-01 -1.19332420E-01 -1.60854152E-01  1.14345644E+00  1.00000000E+00
  1.00000000E+00  3.34946043E-02  2.34726953E-01  8.13757326E-01  1.00000000E+00
  3.34946043E-02  2.34726953E-01  8.13757326E-01  1.00000000E+00  1.83473713E-03
  1.40373228E-02  6.88426223E-02  2.32184443E-01  4.67941348E-01  3.62311985E-01
 -1.19332420E-01 -1.60854152E-01  1.14345644E+00  1.00000000E+00  1.00000000E+00
  1.83107443E-03  1.39501722E-02  6.84450781E-02  2.32714336E-01  4.70192898E-01
  3.58520853E-01 -1.10777550E-01 -1.48026263E-01  1.13076702E+00  1.00000000E+00
  1.00000000E+00  1.83477216E-03  1.39946270E-02  6.85865518E-02  2.32240873E-01
  4.69069948E-01  3.60455199E-01 -1.14961182E-01 -1.69117479E-01  1.14585195E+00
  1.00000000E+00  1.00000000E+00  3.34946043E-02  2.34726953E-01  8.13757326E-01
  1.00000000E+00  1.83473713E-03  1.40373228E-02  6.88426223E-02  2.32184443E-01
  4.67941348E-01  3.62311985E-01 -1.19332420E-01 -1.60854152E-01  1.14345644E+00
  1.00000000E+00  1.00000000E+00  3.34946043E-02  2.34726953E-01  8.13757326E-01
  1.00000000E+00  3.34946043E-02  2.34726953E-01  8.13757326E-01  1.00000000E+00
  3.34946043E-02  2.34726953E-01  8.13757326E-01  1.00000000E+00
P(S=P) Contraction coefficients            R   N=         139
  0.00000000E+00  0.00000000E+00  0.00000000E+00  0.00000000E+00  0.00000000E+00
  0.00000000E+00  6.89990666E-02  3.16423961E-01  7.44308291E-01  1.00000000E+00
  1.00000000E+00  0.00000000E+00  0.00000000E+00  0.00000000E+00  0.00000000E+00
  0.00000000E+00  0.00000000E+00  0.00000000E+00  0.00000000E+00  0.00000000E+00
  0.00000000E+00  0.00000000E+00  0.00000000E+00  0.00000000E+00  0.00000000E+00
  0.00000000E+00  0.00000000E+00  0.00000000E+00  0.00000000E+00  6.89990666E-02
  3.16423961E-01  7.44308291E-01  1.00000000E+00  1.00000000E+00  0.00000000E+00
  0.00000000E+00  0.00000000E+00  0.00000000E+00  0.00000000E+00  0.00000000E+00
  7.08742682E-02  3.39752839E-01  7.27158577E-01  1.00000000E+00  1.00000000E+00
  0.00000000E+00  0.00000000E+00  0.00000000E+00  0.00000000E+00  0.00000000E+00
  0.00000000E+00  6.75797439E-02  3.23907296E-01  7.40895140E-01  1.00000000E+00
  1.00000000E+00  0.00000000E+00  0.00000000E+00  0.00000000E+00  0.00000000E+00
  0.00000000E+00  0.00000000E+00  0.00000000E+00  0.00000000E+00  0.00000000E+00
  0.00000000E+00  6.89990666E-02  3.16423961E-01  7.44308291E-01  1.00000000E+00
  1.00000000E+00  0.00000000E+00  0.00000000E+00  0.00000000E+00  0.00000000E+00
  0.00000000E+00  0.00000000E+00  0.00000000E+00  0.00000000E+00  0.00000000E+00
  0.00000000E+00  0.00000000E+00  0.00000000E+00  0.00000000E+00  0.00000000E+00
  6.89990666E-02  3.16423961E-01  7.44308291E-01  1.00000000E+00  1.00000000E+00
  0.00000000E+00  0.00000000E+00  0.00000000E+00  0.00000000E+00  0.00000000E+00
  0.00000000E+00  7.08742682E-02  3.39752839E-01  7.27158577E-01  1.00000000E+00
  1.00000000E+00  0.00000000E+00  0.00000000E+00  0.00000000E+00  0.00000000E+00
  0.00000000E+00  0.00000000E+00  6.75797439E-02  3.23907296E-01  7.40895140E-01
  1.00000000E+00  1.00000000E+00  0.00000000E+00  0.00000000E+00  0.00000000E+00
  0.00000000E+00  0.00000000E+00  0.00000000E+00  0.00000000E+00  0.00000000E+00
  0.00000000E+00  0.00000000E+00  6.89990666E-02  3.16423961E-01  7.44308291E-01
  1.00000000E+00  1.00000000E+00  0.00000000E+00  0.00000000E+00  0.00000000E+00
  0.00000000E+00  0.00000000E+00  0.00000000E+00  0.00000000E+00  0.00000000E+00
  0.00000000E+00  0.00000000E+00  0.00000000E+00  0.00000000E+00
Coordinates of each shell                  R   N=         168
 -6.45459559E+00  1.73397088E+00 -3.53724971E-06 -6.45459559E+00  1.73397088E+00
 -3.53724971E-06 -6.45459559E+00  1.73397088E+00 -3.53724971E-06 -6.45459559E+00
  1.73397088E+00 -3.53724971E-06 -5.67967588E+00  3.65398462E+00 -5.85041520E-06
 -5.67967588E+00  3.65398462E+00 -5.85041520E-06 -7.65041445E+00  1.47878889E+00
 -1.67353187E+00 -7.65041445E+00  1.47878889E+00 -1.67353187E+00 -7.65041506E+00
  1.47879325E+00  1.67352504E+00 -7.65041506E+00  1.47879325E+00  1.67352504E+00
 -4.41972538E+00 -2.92584417E-01 -5.71815259E-07 -4.41972538E+00 -2.92584417E-01
 -5.71815259E-07 -4.41972538E+00 -2.92584417E-01 -5.71815259E-07 -4.41972538E+00
 -2.92584417E-01 -5.71815259E-07 -4.94805695E+00 -2.59132643E+00  6.81339691E-08
 -4.94805695E+00 -2.59132643E+00  6.81339691E-08 -4.94805695E+00 -2.59132643E+00
  6.81339691E-08 -4.94805695E+00 -2.59132643E+00  6.81339691E-08 -1.98449191E+00
  5.19116374E-01  1.48635126E-06 -1.98449191E+00  5.19116374E-01  1.48635126E-06
 -1.98449191E+00  5.19116374E-01  1.48635126E-06 -1.98449191E+00  5.19116374E-01
  1.48635126E-06 -1.50080357E+00  2.37039063E+00  1.44454775E-06 -1.50080357E+00
  2.37039063E+00  1.44454775E-06  9.51524320E-02 -1.25913582E+00  3.98591533E-06
  9.51524320E-02 -1.25913582E+00  3.98591533E-06  9.51524320E-02 -1.25913582E+00
  3.98591533E-06  9.51524320E-02 -1.25913582E+00  3.98591533E-06 -7.79030098E-03
 -2.49406326E+00 -1.67143085E+00 -7.79030098E-03 -2.49406326E+00 -1.67143085E+00
 -7.78967967E-03 -2.49405834E+00  1.67144256E+00 -7.78967967E-03 -2.49405834E+00
  1.67144256E+00  2.57430897E+00  2.29527695E-01  1.71146977E-06  2.57430897E+00
  2.29527695E-01  1.71146977E-06  2.57430897E+00  2.29527695E-01  1.71146977E-06
  2.57430897E+00  2.29527695E-01  1.71146977E-06  2.59763588E+00  2.58454455E+00
  3.56319088E-06  2.59763588E+00  2.58454455E+00  3.56319088E-06  2.59763588E+00
  2.58454455E+00  3.56319088E-06  2.59763588E+00  2.58454455E+00  3.56319088E-06
  4.71958247E+00 -1.16748320E+00 -2.01042420E-06  4.71958247E+00 -1.16748320E+00
 -2.01042420E-06  4.71958247E+00 -1.16748320E+00 -2.01042420E-06  4.71958247E+00
 -1.16748320E+00 -2.01042420E-06  4.60784812E+00 -3.07093448E+00 -5.35461146E-06
  4.60784812E+00 -3.07093448E+00 -5.35461146E-06  7.20782789E+00  3.12149126E-02
 -3.32814131E-06  7.20782789E+00  3.12149126E-02 -3.32814131E-06  7.20782789E+00
  3.12149126E-02 -3.32814131E-06  7.20782789E+00  3.12149126E-02 -3.32814131E-06
  8.65826554E+00 -1.44096389E+00  9.19739925E-06  8.65826554E+00 -1.44096389E+00