Gaussian input prepared by ASE                                          
FOpt      RBMK                                                        6-31+G              
Number of atoms                            I               19
Info1-9                                    I   N=           9
          29          29           0           0           0         110
           2          18        -402
Full Title                                 C   N=           3
Gaussian input prepared by ASE      
Route                                      C   N=           3
#P bmk/6-31+g opt(modredun,calcfc)  
Charge                                     I                0
Multiplicity                               I                1
Number of electrons                        I               70
Number of alpha electrons                  I               35
Number of beta electrons                   I               35
Number of basis functions                  I              137
Number of independent functions            I              137
Number of point charges in /Mol/           I                0
Number of translation vectors              I                0
Atomic numbers                             I   N=          19
           6           1           1           1           6           8
           7           1           6           1           1           6
           8           7           1           6           1           1
           1
Nuclear charges                            R   N=          19
  6.00000000E+00  1.00000000E+00  1.00000000E+00  1.00000000E+00  6.00000000E+00
  8.00000000E+00  7.00000000E+00  1.00000000E+00  6.00000000E+00  1.00000000E+00
  1.00000000E+00  6.00000000E+00  8.00000000E+00  7.00000000E+00  1.00000000E+00
  6.00000000E+00  1.00000000E+00  1.00000000E+00  1.00000000E+00
Current cartesian coordinates              R   N=          57
 -6.78924006E+00  1.47248381E+00 -1.66101413E-04 -6.26710620E+00  3.47680830E+00
  9.11489288E-04 -7.92475337E+00  1.05012305E+00 -1.67973188E+00 -7.92604876E+00
  1.04860244E+00  1.67812945E+00 -4.48040305E+00 -3.06575602E-01 -1.97928298E-05
 -4.80333684E+00 -2.64344515E+00 -1.64218489E-04 -2.07736948E+00  6.71723415E-01
  2.34432796E-04 -1.70162510E+00  2.54751251E+00  3.33987526E-04  9.77730030E-02
 -1.04034588E+00  3.28927018E-04  1.16876969E-03 -2.28054581E+00 -1.66692526E+00
  1.35451947E-03 -2.28020000E+00  1.66785552E+00  2.64123102E+00  3.98944371E-01
  8.58307699E-05  2.72094120E+00  2.74695124E+00 -5.68646767E-06  4.74194714E+00
 -1.11631215E+00 -3.70671305E-05  4.46649024E+00 -3.00675292E+00  7.61135753E-05
  7.40085607E+00 -2.37184156E-01 -2.13394846E-04  8.37957015E+00 -9.13269492E-01
 -1.69623426E+00  7.37713308E+00  1.83063927E+00 -4.75440180E-04  8.37963628E+00
 -9.12780187E-01  1.69594514E+00
Number of symbols in /Mol/                 I                0
Redundant internal dimensions              I   N=           4
          81          19          30          32
Redundant internal coordinate indices      I   N=         324
           1           2           0           0           1           3
           0           0           1           4           0           0
           1           5           0           0           1          16
           0           0           5           6           0           0
           5           7           0           0           7           8
           0           0           7           9           0           0
           9          10           0           0           9          11
           0           0           9          12           0           0
          12          13           0           0          12          14
           0           0          14          15           0           0
          14          16           0           0          16          17
           0           0          16          18           0           0
          16          19           0           0           2           1
           3           0           2           1           4           0
           2           1           5           0           3           1
           4           0           3           1           5           0
           4           1           5           0           1           5
           6           0           1           5           7           0
           6           5           7           0           5           7
           8           0           5           7           9           0
           8           7           9           0           7           9
          10           0           7           9          11           0
           7           9          12           0          10           9
          11           0          10           9          12           0
          11           9          12           0           9          12
          13           0           9          12          14           0
          13          12          14           0          12          14
          15           0          12          14          16           0
          15          14          16           0          14          16
          17           0          14          16          18           0
          14          16          19           0          17          16
          18           0          17          16          19           0
          18          16          19           0           2           1
           5           6           2           1           5           7
           3           1           5           6           3           1
           5           7           4           1           5           6
           4           1           5           7           1           5
           7           8           1           5           7           9
           6           5           7           8           6           5
           7           9           5           7           9          10
           5           7           9          11           5           7
           9          12           8           7           9          10
           8           7           9          11           8           7
           9          12           7           9          12          13
           7           9          12          14          10           9
          12          13          10           9          12          14
          11           9          12          13          11           9
          12          14           9          12          14          15
           9          12          14          16          13          12
          14          15          13          12          14          16
          12          14          16          17          12          14
          16          18          12          14          16          19
          15          14          16          17          15          14
          16          18          15          14          16          19
Redundant internal coordinates             R   N=          81
  2.07121742E+00  2.07092257E+00  2.07091414E+00  2.91475227E+00  1.42927182E+01
  2.35907727E+00  2.59454030E+00  1.91305216E+00  2.76810876E+00  2.08018383E+00
  2.08018742E+00  2.92245363E+00  2.34935948E+00  2.59017577E+00  1.91040385E+00
  2.80047545E+00  2.07158380E+00  2.06795951E+00  2.07156812E+00  1.91347117E+00
  1.91349880E+00  1.97247632E+00  1.89075531E+00  1.88587190E+00  1.88583738E+00
  2.08999512E+00  2.09845218E+00  2.09473800E+00  2.15511317E+00  2.08814242E+00
  2.03992971E+00  1.90946031E+00  1.90948310E+00  1.95981023E+00  1.85979436E+00
  1.91131334E+00  1.91128489E+00  2.11968413E+00  2.00175802E+00  2.16174315E+00
  2.05098600E+00  2.19739087E+00  2.03480843E+00  1.92427600E+00  1.87864436E+00
  1.92428024E+00  1.90885483E+00  1.91843897E+00  1.90882747E+00  3.14110527E+00
 -5.02425946E-04 -1.02160361E+00  2.11997400E+00  1.02061806E+00 -2.12098964E+00
 -1.41670787E-06 -3.14157518E+00  3.14157615E+00  2.39111408E-06  1.01546053E+00
 -1.01587512E+00  3.14139545E+00 -2.12611446E+00  2.12573520E+00 -1.79538139E-04
  7.62006046E-05 -3.14150769E+00  2.12495435E+00 -1.01662954E+00 -2.12481099E+00
  1.01679043E+00 -2.17743597E-05 -3.14156630E+00  3.14157988E+00  3.53613315E-05
 -2.08102878E+00 -1.25943623E-04  2.08074623E+00  1.06061161E+00  3.14151444E+00
 -1.06079869E+00
ZRed-IntVec                                I   N=          81
           0           0           0           0          -1           0
           0           0           0           0           0           0
           0           0           0           0           0           0
           0           0           0           0           0           0
           0           0           0           0           0           0
           0           0           0           0           0           0
           0           0           0           0           0           0
           0           0           0           0           0           0
           0           0           0           0           0           0
           0           0           0           0           0           0
           0           0           0           0           0           0
           0           0           0           0           0           0
           0           0           0           0           0           0
           0           0           0
ZRed-FPVec                                 R   N=          81
  0.00000000E+00  0.00000000E+00  0.00000000E+00  0.00000000E+00  0.00000000E+00
  0.00000000E+00  0.00000000E+00  0.00000000E+00  0.00000000E+00  0.00000000E+00
  0.00000000E+00  0.00000000E+00  0.00000000E+00  0.00000000E+00  0.00000000E+00
  0.00000000E+00  0.00000000E+00  0.00000000E+00  0.00000000E+00  0.00000000E+00
  0.00000000E+00  0.00000000E+00  0.00000000E+00  0.00000000E+00  0.00000000E+00
  0.00000000E+00  0.00000000E+00  0.00000000E+00  0.00000000E+00  0.00000000E+00
  0.00000000E+00  0.00000000E+00  0.00000000E+00  0.00000000E+00  0.00000000E+00
  0.00000000E+00  0.00000000E+00  0.00000000E+00  0.00000000E+00  0.00000000E+00
  0.00000000E+00  0.00000000E+00  0.00000000E+00  0.00000000E+00  0.00000000E+00
  0.00000000E+00  0.00000000E+00  0.00000000E+00  0.00000000E+00  0.00000000E+00
  0.00000000E+00  0.00000000E+00  0.00000000E+00  0.00000000E+00  0.00000000E+00
  0.00000000E+00  0.00000000E+00  0.00000000E+00  0.00000000E+00  0.00000000E+00
  0.00000000E+00  0.00000000E+00  0.00000000E+00  0.00000000E+00  0.00000000E+00
  0.00000000E+00  0.00000000E+00  0.00000000E+00  0.00000000E+00  0.00000000E+00
  0.00000000E+00  0.00000000E+00  0.00000000E+00  0.00000000E+00  0.00000000E+00
  0.00000000E+00  0.00000000E+00  0.00000000E+00  0.00000000E+00  0.00000000E+00
  0.00000000E+00
ZRed-Constraint1                           R   N=          81
  2.12058171E+00  1.97495991E+00  1.97499146E+00  3.03651008E+00  1.42927183E+01
  2.35893700E+00  2.57409743E+00  1.91323486E+00  2.74400168E+00  2.08062067E+00
  2.08061279E+00  2.89826039E+00  2.35349167E+00  2.56670391E+00  1.90720859E+00
  2.93529552E+00  1.92690775E+00  2.06965115E+00  2.06965053E+00  1.94083638E+00
  1.94081859E+00  1.84733869E+00  2.02461071E+00  1.84820251E+00  1.84820099E+00
  2.08186374E+00  2.09000252E+00  2.11131905E+00  2.15106261E+00  2.10197214E+00
  2.03015056E+00  1.92118016E+00  1.92117332E+00  1.91319279E+00  1.86330578E+00
  1.92226168E+00  1.92228650E+00  2.12329868E+00  2.01668925E+00  2.14319737E+00
  2.08027665E+00  2.16767301E+00  2.03523564E+00  1.86502928E+00  1.82718108E+00
  1.82721021E+00  2.01604234E+00  2.01605444E+00  1.89250114E+00 -3.14150635E+00
  7.30634158E-05 -1.07949707E+00  2.06208234E+00  1.07969073E+00 -2.06191516E+00
  1.68587394E-07 -3.14158165E+00  3.14157935E+00 -2.46554561E-06  1.02478055E+00
 -1.02449510E+00 -3.14146315E+00 -2.11680199E+00  2.11710767E+00  1.39619121E-04
 -1.84452411E-04  3.14143726E+00  2.11610530E+00 -1.02545829E+00 -2.11648157E+00
  1.02514015E+00 -7.53804118E-05  3.14152039E+00  3.14154670E+00 -4.28376248E-05
 -3.14142240E+00 -9.94634564E-01  9.94945533E-01  1.73297266E-04  2.14696113E+00
 -2.14664408E+00
ZRed-Constraint2                           R   N=          81
  0.00000000E+00  0.00000000E+00  0.00000000E+00  0.00000000E+00  1.42927183E+01
  0.00000000E+00  0.00000000E+00  0.00000000E+00  0.00000000E+00  0.00000000E+00
  0.00000000E+00  0.00000000E+00  0.00000000E+00  0.00000000E+00  0.00000000E+00
  0.00000000E+00  0.00000000E+00  0.00000000E+00  0.00000000E+00  0.00000000E+00
  0.00000000E+00  0.00000000E+00  0.00000000E+00  0.00000000E+00  0.00000000E+00
  0.00000000E+00  0.00000000E+00  0.00000000E+00  0.00000000E+00  0.00000000E+00
  0.00000000E+00  0.00000000E+00  0.00000000E+00  0.00000000E+00  0.00000000E+00
  0.00000000E+00  0.00000000E+00  0.00000000E+00  0.00000000E+00  0.00000000E+00
  0.00000000E+00  0.00000000E+00  0.00000000E+00  0.00000000E+00  0.00000000E+00
  0.00000000E+00  0.00000000E+00  0.00000000E+00  0.00000000E+00  0.00000000E+00
  0.00000000E+00  0.00000000E+00  0.00000000E+00  0.00000000E+00  0.00000000E+00
  0.00000000E+00  0.00000000E+00  0.00000000E+00  0.00000000E+00  0.00000000E+00
  0.00000000E+00  0.00000000E+00  0.00000000E+00  0.00000000E+00  0.00000000E+00
  0.00000000E+00  0.00000000E+00  0.00000000E+00  0.00000000E+00  0.00000000E+00
  0.00000000E+00  0.00000000E+00  0.00000000E+00  0.00000000E+00  0.00000000E+00
  0.00000000E+00  0.00000000E+00  0.00000000E+00  0.00000000E+00  0.00000000E+00
  0.00000000E+00
Force Field                                I                0
Atom Types                                 C   N=          19
                                                            
                                                            
                                                            
                                                
Int Atom Types                             I   N=          19
           0           0           0           0           0           0
           0           0           0           0           0           0
           0           0           0           0           0           0
           0
MM charges                                 R   N=          19
  0.00000000E+00  0.00000000E+00  0.00000000E+00  0.00000000E+00  0.00000000E+00
  0.00000000E+00  0.00000000E+00  0.00000000E+00  0.00000000E+00  0.00000000E+00
  0.00000000E+00  0.00000000E+00  0.00000000E+00  0.00000000E+00  0.00000000E+00
  0.00000000E+00  0.00000000E+00  0.00000000E+00  0.00000000E+00
Integer atomic weights                     I   N=          19
          12           1           1           1          12          16
          14           1          12           1           1          12
          16          14           1          12           1           1
           1
Real atomic weights                        R   N=          19
  1.20000000E+01  1.00782504E+00  1.00782504E+00  1.00782504E+00  1.20000000E+01
  1.59949146E+01  1.40030740E+01  1.00782504E+00  1.20000000E+01  1.00782504E+00
  1.00782504E+00  1.20000000E+01  1.59949146E+01  1.40030740E+01  1.00782504E+00
  1.20000000E+01  1.00782504E+00  1.00782504E+00  1.00782504E+00
Atom fragment info                         I   N=          19
           0           0           0           0           0           0
           0           0           0           0           0           0
           0           0           0           0           0           0
           0
Atom residue num                           I   N=          19
           0           0           0           0           0           0
           0           0           0           0           0           0
           0           0           0           0           0           0
           0
Nuclear spins                              I   N=          19
           0           1           1           1           0           0
           2           1           0           1           1           0
           0           2           1           0           1           1
           1
Nuclear ZEff                               R   N=          19
 -3.60000000E+00 -1.00000000E+00 -1.00000000E+00 -1.00000000E+00 -3.60000000E+00
 -5.60000000E+00 -4.55000000E+00 -1.00000000E+00 -3.60000000E+00 -1.00000000E+00
 -1.00000000E+00 -3.60000000E+00 -5.60000000E+00 -4.55000000E+00 -1.00000000E+00
 -3.60000000E+00 -1.00000000E+00 -1.00000000E+00 -1.00000000E+00
Nuclear ZNuc                               R   N=          19
  6.00000000E+00  1.00000000E+00  1.00000000E+00  1.00000000E+00  6.00000000E+00
  8.00000000E+00  7.00000000E+00  1.00000000E+00  6.00000000E+00  1.00000000E+00
  1.00000000E+00  6.00000000E+00  8.00000000E+00  7.00000000E+00  1.00000000E+00
  6.00000000E+00  1.00000000E+00  1.00000000E+00  1.00000000E+00
Nuclear QMom                               R   N=          19
  0.00000000E+00  0.00000000E+00  0.00000000E+00  0.00000000E+00  0.00000000E+00
  0.00000000E+00  2.04400000E+00  0.00000000E+00  0.00000000E+00  0.00000000E+00
  0.00000000E+00  0.00000000E+00  0.00000000E+00  2.04400000E+00  0.00000000E+00
  0.00000000E+00  0.00000000E+00  0.00000000E+00  0.00000000E+00
Nuclear GFac                               R   N=          19
  0.00000000E+00  2.79284600E+00  2.79284600E+00  2.79284600E+00  0.00000000E+00
  0.00000000E+00  4.03761000E-01  2.79284600E+00  0.00000000E+00  2.79284600E+00
  2.79284600E+00  0.00000000E+00  0.00000000E+00  4.03761000E-01  2.79284600E+00
  0.00000000E+00  2.79284600E+00  2.79284600E+00  2.79284600E+00
MicOpt                                     I   N=          19
          -1          -1          -1          -1          -1          -1
          -1          -1          -1          -1          -1          -1
          -1          -1          -1          -1          -1          -1
          -1
Number of residues                         I                0
Number of secondary structures             I                0
Number of contracted shells                I               56
Number of primitive shells                 I              139
Pure/Cartesian d shells                    I                1
Pure/Cartesian f shells                    I                0
Highest angular momentum                   I                1
Largest degree of contraction              I                6
Shell types                                I   N=          56
           0          -1          -1          -1           0           0
           0           0           0           0           0          -1
          -1          -1           0          -1          -1          -1
           0          -1          -1          -1           0           0
           0          -1          -1          -1           0           0
           0           0           0          -1          -1          -1
           0          -1          -1          -1           0          -1
          -1          -1           0           0           0          -1
          -1          -1           0           0           0           0
           0           0
Number of primitives per shell             I   N=          56
           6           3           1           1           3           1
           3           1           3           1           6           3
           1           1           6           3           1           1
           6           3           1           1           3           1
           6           3           1           1           3           1
           3           1           6           3           1           1
           6           3           1           1           6           3
           1           1           3           1           6           3
           1           1           3           1           3           1
           3           1
Shell to atom map                          I   N=          56
           1           1           1           1           2           2
           3           3           4           4           5           5
           5           5           6           6           6           6
           7           7           7           7           8           8
           9           9           9           9          10          10
          11          11          12          12          12          12
          13          13          13          13          14          14
          14          14          15          15          16          16
          16          16          17          17          18          18
          19          19
Primitive exponents                        R   N=         139
  3.04752488E+03  4.57369518E+02  1.03948685E+02  2.92101553E+01  9.28666296E+00
  3.16392696E+00  7.86827235E+00  1.88128854E+00  5.44249258E-01  1.68714478E-01
  4.38000000E-02  1.87311370E+01  2.82539436E+00  6.40121692E-01  1.61277759E-01
  1.87311370E+01  2.82539436E+00  6.40121692E-01  1.61277759E-01  1.87311370E+01
  2.82539436E+00  6.40121692E-01  1.61277759E-01  3.04752488E+03  4.57369518E+02
  1.03948685E+02  2.92101553E+01  9.28666296E+00  3.16392696E+00  7.86827235E+00
  1.88128854E+00  5.44249258E-01  1.68714478E-01  4.38000000E-02  5.48467166E+03
  8.25234946E+02  1.88046958E+02  5.29645000E+01  1.68975704E+01  5.79963534E+00
  1.55396162E+01  3.59993359E+00  1.01376175E+00  2.70005823E-01  8.45000000E-02
  4.17351146E+03  6.27457911E+02  1.42902093E+02  4.02343293E+01  1.28202129E+01
  4.39043701E+00  1.16263619E+01  2.71627981E+00  7.72218397E-01  2.12031498E-01
  6.39000000E-02  1.87311370E+01  2.82539436E+00  6.40121692E-01  1.61277759E-01
  3.04752488E+03  4.57369518E+02  1.03948685E+02  2.92101553E+01  9.28666296E+00
  3.16392696E+00  7.86827235E+00  1.88128854E+00  5.44249258E-01  1.68714478E-01
  4.38000000E-02  1.87311370E+01  2.82539436E+00  6.40121692E-01  1.61277759E-01
  1.87311370E+01  2.82539436E+00  6.40121692E-01  1.61277759E-01  3.04752488E+03
  4.57369518E+02  1.03948685E+02  2.92101553E+01  9.28666296E+00  3.16392696E+00
  7.86827235E+00  1.88128854E+00  5.44249258E-01  1.68714478E-01  4.38000000E-02
  5.48467166E+03  8.25234946E+02  1.88046958E+02  5.29645000E+01  1.68975704E+01
  5.79963534E+00  1.55396162E+01  3.59993359E+00  1.01376175E+00  2.70005823E-01
  8.45000000E-02  4.17351146E+03  6.27457911E+02  1.42902093E+02  4.02343293E+01
  1.28202129E+01  4.39043701E+00  1.16263619E+01  2.71627981E+00  7.72218397E-01
  2.12031498E-01  6.39000000E-02  1.87311370E+01  2.82539436E+00  6.40121692E-01
  1.61277759E-01  3.04752488E+03  4.57369518E+02  1.03948685E+02  2.92101553E+01
  9.28666296E+00  3.16392696E+00  7.86827235E+00  1.88128854E+00  5.44249258E-01
  1.68714478E-01  4.38000000E-02  1.87311370E+01  2.82539436E+00  6.40121692E-01
  1.61277759E-01  1.87311370E+01  2.82539436E+00  6.40121692E-01  1.61277759E-01
  1.87311370E+01  2.82539436E+00  6.40121692E-01  1.61277759E-01
Contraction coefficients                   R   N=         139
  1.83473713E-03  1.40373228E-02  6.88426223E-02  2.32184443E-01  4.67941348E-01
  3.62311985E-01 -1.19332420E-01 -1.60854152E-01  1.14345644E+00  1.00000000E+00
  1.00000000E+00  3.34946043E-02  2.34726953E-01  8.13757326E-01  1.00000000E+00
  3.34946043E-02  2.34726953E-01  8.13757326E-01  1.00000000E+00  3.34946043E-02
  2.34726953E-01  8.13757326E-01  1.00000000E+00  1.83473713E-03  1.40373228E-02
  6.88426223E-02  2.32184443E-01  4.67941348E-01  3.62311985E-01 -1.19332420E-01
 -1.60854152E-01  1.14345644E+00  1.00000000E+00  1.00000000E+00  1.83107443E-03
  1.39501722E-02  6.84450781E-02  2.32714336E-01  4.70192898E-01  3.58520853E-01
 -1.10777550E-01 -1.48026263E-01  1.13076702E+00  1.00000000E+00  1.00000000E+00
  1.83477216E-03  1.39946270E-02  6.85865518E-02  2.32240873E-01  4.69069948E-01
  3.60455199E-01 -1.14961182E-01 -1.69117479E-01  1.14585195E+00  1.00000000E+00
  1.00000000E+00  3.34946043E-02  2.34726953E-01  8.13757326E-01  1.00000000E+00
  1.83473713E-03  1.40373228E-02  6.88426223E-02  2.32184443E-01  4.67941348E-01
  3.62311985E-01 -1.19332420E-01 -1.60854152E-01  1.14345644E+00  1.00000000E+00
  1.00000000E+00  3.34946043E-02  2.34726953E-01  8.13757326E-01  1.00000000E+00
  3.34946043E-02  2.34726953E-01  8.13757326E-01  1.00000000E+00  1.83473713E-03
  1.40373228E-02  6.88426223E-02  2.32184443E-01  4.67941348E-01  3.62311985E-01
 -1.19332420E-01 -1.60854152E-01  1.14345644E+00  1.00000000E+00  1.00000000E+00
  1.83107443E-03  1.39501722E-02  6.84450781E-02  2.32714336E-01  4.70192898E-01
  3.58520853E-01 -1.10777550E-01 -1.48026263E-01  1.13076702E+00  1.00000000E+00
  1.00000000E+00  1.83477216E-03  1.39946270E-02  6.85865518E-02  2.32240873E-01
  4.69069948E-01  3.60455199E-01 -1.14961182E-01 -1.69117479E-01  1.14585195E+00
  1.00000000E+00  1.00000000E+00  3.34946043E-02  2.34726953E-01  8.13757326E-01
  1.00000000E+00  1.83473713E-03  1.40373228E-02  6.88426223E-02  2.32184443E-01
  4.67941348E-01  3.62311985E-01 -1.19332420E-01 -1.60854152E-01  1.14345644E+00
  1.00000000E+00  1.00000000E+00  3.34946043E-02  2.34726953E-01  8.13757326E-01
  1.00000000E+00  3.34946043E-02  2.34726953E-01  8.13757326E-01  1.00000000E+00
  3.34946043E-02  2.34726953E-01  8.13757326E-01  1.00000000E+00
P(S=P) Contraction coefficients            R   N=         139
  0.00000000E+00  0.00000000E+00  0.00000000E+00  0.00000000E+00  0.00000000E+00
  0.00000000E+00  6.89990666E-02  3.16423961E-01  7.44308291E-01  1.00000000E+00
  1.00000000E+00  0.00000000E+00  0.00000000E+00  0.00000000E+00  0.00000000E+00
  0.00000000E+00  0.00000000E+00  0.00000000E+00  0.00000000E+00  0.00000000E+00
  0.00000000E+00  0.00000000E+00  0.00000000E+00  0.00000000E+00  0.00000000E+00
  0.00000000E+00  0.00000000E+00  0.00000000E+00  0.00000000E+00  6.89990666E-02
  3.16423961E-01  7.44308291E-01  1.00000000E+00  1.00000000E+00  0.00000000E+00
  0.00000000E+00  0.00000000E+00  0.00000000E+00  0.00000000E+00  0.00000000E+00
  7.08742682E-02  3.39752839E-01  7.27158577E-01  1.00000000E+00  1.00000000E+00
  0.00000000E+00  0.00000000E+00  0.00000000E+00  0.00000000E+00  0.00000000E+00
  0.00000000E+00  6.75797439E-02  3.23907296E-01  7.40895140E-01  1.00000000E+00
  1.00000000E+00  0.00000000E+00  0.00000000E+00  0.00000000E+00  0.00000000E+00
  0.00000000E+00  0.00000000E+00  0.00000000E+00  0.00000000E+00  0.00000000E+00
  0.00000000E+00  6.89990666E-02  3.16423961E-01  7.44308291E-01  1.00000000E+00
  1.00000000E+00  0.00000000E+00  0.00000000E+00  0.00000000E+00  0.00000000E+00
  0.00000000E+00  0.00000000E+00  0.00000000E+00  0.00000000E+00  0.00000000E+00
  0.00000000E+00  0.00000000E+00  0.00000000E+00  0.00000000E+00  0.00000000E+00
  6.89990666E-02  3.16423961E-01  7.44308291E-01  1.00000000E+00  1.00000000E+00
  0.00000000E+00  0.00000000E+00  0.00000000E+00  0.00000000E+00  0.00000000E+00
  0.00000000E+00  7.08742682E-02  3.39752839E-01  7.27158577E-01  1.00000000E+00
  1.00000000E+00  0.00000000E+00  0.00000000E+00  0.00000000E+00  0.00000000E+00
  0.00000000E+00  0.00000000E+00  6.75797439E-02  3.23907296E-01  7.40895140E-01
  1.00000000E+00  1.00000000E+00  0.00000000E+00  0.00000000E+00  0.00000000E+00
  0.00000000E+00  0.00000000E+00  0.00000000E+00  0.00000000E+00  0.00000000E+00
  0.00000000E+00  0.00000000E+00  6.89990666E-02  3.16423961E-01  7.44308291E-01
  1.00000000E+00  1.00000000E+00  0.00000000E+00  0.00000000E+00  0.00000000E+00
  0.00000000E+00  0.00000000E+00  0.00000000E+00  0.00000000E+00  0.00000000E+00
  0.00000000E+00  0.00000000E+00  0.00000000E+00  0.00000000E+00
Coordinates of each shell                  R   N=         168
 -6.78924006E+00  1.47248381E+00 -1.66101413E-04 -6.78924006E+00  1.47248381E+00
 -1.66101413E-04 -6.78924006E+00  1.47248381E+00 -1.66101413E-04 -6.78924006E+00
  1.47248381E+00 -1.66101413E-04 -6.26710620E+00  3.47680830E+00  9.11489288E-04
 -6.26710620E+00  3.47680830E+00  9.11489288E-04 -7.92475337E+00  1.05012305E+00
 -1.67973188E+00 -7.92475337E+00  1.05012305E+00 -1.67973188E+00 -7.92604876E+00
  1.04860244E+00  1.67812945E+00 -7.92604876E+00  1.04860244E+00  1.67812945E+00
 -4.48040305E+00 -3.06575602E-01 -1.97928298E-05 -4.48040305E+00 -3.06575602E-01
 -1.97928298E-05 -4.48040305E+00 -3.06575602E-01 -1.97928298E-05 -4.48040305E+00
 -3.06575602E-01 -1.97928298E-05 -4.80333684E+00 -2.64344515E+00 -1.64218489E-04
 -4.80333684E+00 -2.64344515E+00 -1.64218489E-04 -4.80333684E+00 -2.64344515E+00
 -1.64218489E-04 -4.80333684E+00 -2.64344515E+00 -1.64218489E-04 -2.07736948E+00
  6.71723415E-01  2.34432796E-04 -2.07736948E+00  6.71723415E-01  2.34432796E-04
 -2.07736948E+00  6.71723415E-01  2.34432796E-04 -2.07736948E+00  6.71723415E-01
  2.34432796E-04 -1.70162510E+00  2.54751251E+00  3.33987526E-04 -1.70162510E+00
  2.54751251E+00  3.33987526E-04  9.77730030E-02 -1.04034588E+00  3.28927018E-04
  9.77730030E-02 -1.04034588E+00  3.28927018E-04  9.77730030E-02 -1.04034588E+00
  3.28927018E-04  9.77730030E-02 -1.04034588E+00  3.28927018E-04  1.16876969E-03
 -2.28054581E+00 -1.66692526E+00  1.16876969E-03 -2.28054581E+00 -1.66692526E+00
  1.35451947E-03 -2.28020000E+00  1.66785552E+00  1.35451947E-03 -2.28020000E+00
  1.66785552E+00  2.64123102E+00  3.98944371E-01  8.58307699E-05  2.64123102E+00
  3.98944371E-01  8.58307699E-05  2.64123102E+00  3.98944371E-01  8.58307699E-05
  2.64123102E+00  3.98944371E-01  8.58307699E-05  2.72094120E+00  2.74695124E+00
 -5.68646767E-06  2.72094120E+00  2.74695124E+00 -5.68646767E-06  2.72094120E+00
  2.74695124E+00 -5.68646767E-06  2.72094120E+00  2.74695124E+00 -5.68646767E-06
  4.74194714E+00 -1.11631215E+00 -3.70671305E-05  4.74194714E+00 -1.11631215E+00
 -3.70671305E-05  4.74194714E+00 -1.11631215E+00 -3.70671305E-05  4.74194714E+00
 -1.11631215E+00 -3.70671305E-05  4.46649024E+00 -3.00675292E+00  7.61135753E-05
  4.46649024E+00 -3.00675292E+00  7.61135753E-05  7.40085607E+00 -2.37184156E-01
 -2.13394846E-04  7.40085607E+00 -2.37184156E-01 -2.13394846E-04  7.40085607E+00