Gaussian input prepared by ASE                                          
FOpt      RBMK                                                        6-31+G              
Number of atoms                            I               19
Info1-9                                    I   N=           9
          29          29           0           0           0         110
           2          18        -402
Full Title                                 C   N=           3
Gaussian input prepared by ASE      
Route                                      C   N=           3
#P bmk/6-31+g opt(modredun,calcfc)  
Charge                                     I                0
Multiplicity                               I                1
Number of electrons                        I               70
Number of alpha electrons                  I               35
Number of beta electrons                   I               35
Number of basis functions                  I              137
Number of independent functions            I              137
Number of point charges in /Mol/           I                0
Number of translation vectors              I                0
Atomic numbers                             I   N=          19
           6           1           1           1           6           8
           7           1           6           1           1           6
           8           7           1           6           1           1
           1
Nuclear charges                            R   N=          19
  6.00000000E+00  1.00000000E+00  1.00000000E+00  1.00000000E+00  6.00000000E+00
  8.00000000E+00  7.00000000E+00  1.00000000E+00  6.00000000E+00  1.00000000E+00
  1.00000000E+00  6.00000000E+00  8.00000000E+00  7.00000000E+00  1.00000000E+00
  6.00000000E+00  1.00000000E+00  1.00000000E+00  1.00000000E+00
Current cartesian coordinates              R   N=          57
 -6.55291437E+00  1.65661798E+00  2.09528905E-04 -5.85237377E+00  3.60536182E+00
  1.83073840E-05 -7.73441731E+00  1.35138942E+00 -1.67452805E+00 -7.73402865E+00
  1.35156482E+00  1.67525055E+00 -4.43505698E+00 -2.96517740E-01  4.18097272E-05
 -4.89815016E+00 -2.60955138E+00  2.56925713E-05 -2.01083725E+00  5.69004662E-01
 -1.11005124E-04 -1.56099885E+00  2.42860662E+00 -1.24735063E-04  9.37216237E-02
 -1.19178349E+00 -2.91120961E-04 -9.81177228E-03 -2.42834993E+00 -1.67037007E+00
 -9.89659466E-03 -2.42876660E+00  1.66946571E+00  2.59185995E+00  2.77644975E-01
 -8.30850165E-05  2.64080442E+00  2.63062710E+00 -1.74533864E-04  4.72006081E+00
 -1.15718459E+00  1.35636510E-04  4.56057835E+00 -3.05771306E+00  2.77884613E-04
  7.25762196E+00 -4.33709736E-02  1.94495995E-04  8.64923052E+00 -1.57086351E+00
  5.69047432E-05  7.52722440E+00  1.14104820E+00 -1.67868953E+00  7.52730161E+00
  1.14083149E+00  1.67923157E+00
Number of symbols in /Mol/                 I                0
Redundant internal dimensions              I   N=           4
          81          19          30          32
Redundant internal coordinate indices      I   N=         324
           1           2           0           0           1           3
           0           0           1           4           0           0
           1           5           0           0           1          16
           0           0           5           6           0           0
           5           7           0           0           7           8
           0           0           7           9           0           0
           9          10           0           0           9          11
           0           0           9          12           0           0
          12          13           0           0          12          14
           0           0          14          15           0           0
          14          16           0           0          16          17
           0           0          16          18           0           0
          16          19           0           0           2           1
           3           0           2           1           4           0
           2           1           5           0           3           1
           4           0           3           1           5           0
           4           1           5           0           1           5
           6           0           1           5           7           0
           6           5           7           0           5           7
           8           0           5           7           9           0
           8           7           9           0           7           9
          10           0           7           9          11           0
           7           9          12           0          10           9
          11           0          10           9          12           0
          11           9          12           0           9          12
          13           0           9          12          14           0
          13          12          14           0          12          14
          15           0          12          14          16           0
          15          14          16           0          14          16
          17           0          14          16          18           0
          14          16          19           0          17          16
          18           0          17          16          19           0
          18          16          19           0           2           1
           5           6           2           1           5           7
           3           1           5           6           3           1
           5           7           4           1           5           6
           4           1           5           7           1           5
           7           8           1           5           7           9
           6           5           7           8           6           5
           7           9           5           7           9          10
           5           7           9          11           5           7
           9          12           8           7           9          10
           8           7           9          11           8           7
           9          12           7           9          12          13
           7           9          12          14          10           9
          12          13          10           9          12          14
          11           9          12          13          11           9
          12          14           9          12          14          15
           9          12          14          16          13          12
          14          15          13          12          14          16
          12          14          16          17          12          14
          16          18          12          14          16          19
          15          14          16          17          15          14
          16          18          15          14          16          19
Redundant internal coordinates             R   N=          81
  2.07083552E+00  2.07216304E+00  2.07216090E+00  2.88098232E+00  1.39147719E+01
  2.35893619E+00  2.57409602E+00  1.91323654E+00  2.74400128E+00  2.08061996E+00
  2.08061333E+00  2.89826072E+00  2.35349112E+00  2.56670505E+00  1.90720821E+00
  2.77124473E+00  2.06635135E+00  2.07224174E+00  2.07225193E+00  1.90861038E+00
  1.90861728E+00  1.97065629E+00  1.88245372E+00  1.89572398E+00  1.89573869E+00
  2.11815649E+00  2.05370969E+00  2.11131913E+00  2.15106243E+00  2.10197266E+00
  2.03015022E+00  1.92118044E+00  1.92117295E+00  1.91319284E+00  1.86330646E+00
  1.92226177E+00  1.92228579E+00  2.12329919E+00  2.01668907E+00  2.14319705E+00
  2.08027643E+00  2.13478320E+00  2.06812568E+00  1.89606743E+00  1.92712502E+00
  1.92715146E+00  1.91223209E+00  1.91223618E+00  1.88902957E+00 -3.14149528E+00
  8.83440071E-05 -1.02145168E+00  2.12013194E+00  1.02162736E+00 -2.11997432E+00
 -4.26909816E-06 -3.14158601E+00  3.14157939E+00 -2.34460195E-06  1.02478062E+00
 -1.02449580E+00 -3.14146276E+00 -2.11680185E+00  2.11710704E+00  1.40073932E-04
 -1.85174228E-04  3.14143724E+00  2.11610500E+00 -1.02545788E+00 -2.11648141E+00
  1.02514101E+00 -7.66529303E-05  3.14152506E+00  3.14154614E+00 -3.74528348E-05
 -3.14142782E+00 -1.04404546E+00  1.04435407E+00  1.73828885E-04  2.09755619E+00
 -2.09722959E+00
ZRed-IntVec                                I   N=          81
           0           0           0           0          -1           0
           0           0           0           0           0           0
           0           0           0           0           0           0
           0           0           0           0           0           0
           0           0           0           0           0           0
           0           0           0           0           0           0
           0           0           0           0           0           0
           0           0           0           0           0           0
           0           0           0           0           0           0
           0           0           0           0           0           0
           0           0           0           0           0           0
           0           0           0           0           0           0
           0           0           0           0           0           0
           0           0           0
ZRed-FPVec                                 R   N=          81
  0.00000000E+00  0.00000000E+00  0.00000000E+00  0.00000000E+00  0.00000000E+00
  0.00000000E+00  0.00000000E+00  0.00000000E+00  0.00000000E+00  0.00000000E+00
  0.00000000E+00  0.00000000E+00  0.00000000E+00  0.00000000E+00  0.00000000E+00
  0.00000000E+00  0.00000000E+00  0.00000000E+00  0.00000000E+00  0.00000000E+00
  0.00000000E+00  0.00000000E+00  0.00000000E+00  0.00000000E+00  0.00000000E+00
  0.00000000E+00  0.00000000E+00  0.00000000E+00  0.00000000E+00  0.00000000E+00
  0.00000000E+00  0.00000000E+00  0.00000000E+00  0.00000000E+00  0.00000000E+00
  0.00000000E+00  0.00000000E+00  0.00000000E+00  0.00000000E+00  0.00000000E+00
  0.00000000E+00  0.00000000E+00  0.00000000E+00  0.00000000E+00  0.00000000E+00
  0.00000000E+00  0.00000000E+00  0.00000000E+00  0.00000000E+00  0.00000000E+00
  0.00000000E+00  0.00000000E+00  0.00000000E+00  0.00000000E+00  0.00000000E+00
  0.00000000E+00  0.00000000E+00  0.00000000E+00  0.00000000E+00  0.00000000E+00
  0.00000000E+00  0.00000000E+00  0.00000000E+00  0.00000000E+00  0.00000000E+00
  0.00000000E+00  0.00000000E+00  0.00000000E+00  0.00000000E+00  0.00000000E+00
  0.00000000E+00  0.00000000E+00  0.00000000E+00  0.00000000E+00  0.00000000E+00
  0.00000000E+00  0.00000000E+00  0.00000000E+00  0.00000000E+00  0.00000000E+00
  0.00000000E+00
ZRed-Constraint1                           R   N=          81
  2.12498120E+00  1.93206701E+00  2.02276970E+00  3.01216470E+00  1.39147719E+01
  2.35752831E+00  2.56367926E+00  1.91301286E+00  2.73193842E+00  2.08301685E+00
  2.07754575E+00  2.88789611E+00  2.35634483E+00  2.55533121E+00  1.90612005E+00
  2.91225145E+00  1.92293524E+00  2.04767818E+00  2.10330159E+00  1.96713407E+00
  1.90040230E+00  1.84879842E+00  2.01723217E+00  1.88155174E+00  1.83643087E+00
  2.09772207E+00  2.05783859E+00  2.12759678E+00  2.13611030E+00  2.12662359E+00
  2.01772199E+00  1.94302699E+00  1.91403468E+00  1.87870190E+00  1.87023086E+00
  1.91452411E+00  1.94410820E+00  2.11851333E+00  2.03049835E+00  2.13416248E+00
  2.09640381E+00  2.13631894E+00  2.05040465E+00  1.87869668E+00  1.84710564E+00
  1.81151801E+00  2.03532586E+00  1.99109240E+00  1.88135435E+00 -3.02384199E+00
  1.25620050E-01 -9.14009596E-01  2.23545245E+00  1.24795689E+00 -1.88576638E+00
  1.89006875E-02  3.07765499E+00 -3.11467976E+00 -5.59254555E-02  1.32839965E+00
 -7.38287483E-01 -2.85600554E+00 -1.89075130E+00  2.32574688E+00  2.08028827E-01
 -2.13236243E-01  2.93332256E+00  1.90345701E+00 -1.23316950E+00 -2.31205991E+00
  8.34498896E-01 -2.75305784E-02  3.12592298E+00  3.11907671E+00 -1.06550408E-02
  3.05527588E+00 -1.03982925E+00  9.38862743E-01 -7.47520944E-02  2.11332808E+00
 -2.19116523E+00
ZRed-Constraint2                           R   N=          81
  0.00000000E+00  0.00000000E+00  0.00000000E+00  0.00000000E+00  1.39147719E+01
  0.00000000E+00  0.00000000E+00  0.00000000E+00  0.00000000E+00  0.00000000E+00
  0.00000000E+00  0.00000000E+00  0.00000000E+00  0.00000000E+00  0.00000000E+00
  0.00000000E+00  0.00000000E+00  0.00000000E+00  0.00000000E+00  0.00000000E+00
  0.00000000E+00  0.00000000E+00  0.00000000E+00  0.00000000E+00  0.00000000E+00
  0.00000000E+00  0.00000000E+00  0.00000000E+00  0.00000000E+00  0.00000000E+00
  0.00000000E+00  0.00000000E+00  0.00000000E+00  0.00000000E+00  0.00000000E+00
  0.00000000E+00  0.00000000E+00  0.00000000E+00  0.00000000E+00  0.00000000E+00
  0.00000000E+00  0.00000000E+00  0.00000000E+00  0.00000000E+00  0.00000000E+00
  0.00000000E+00  0.00000000E+00  0.00000000E+00  0.00000000E+00  0.00000000E+00
  0.00000000E+00  0.00000000E+00  0.00000000E+00  0.00000000E+00  0.00000000E+00
  0.00000000E+00  0.00000000E+00  0.00000000E+00  0.00000000E+00  0.00000000E+00
  0.00000000E+00  0.00000000E+00  0.00000000E+00  0.00000000E+00  0.00000000E+00
  0.00000000E+00  0.00000000E+00  0.00000000E+00  0.00000000E+00  0.00000000E+00
  0.00000000E+00  0.00000000E+00  0.00000000E+00  0.00000000E+00  0.00000000E+00
  0.00000000E+00  0.00000000E+00  0.00000000E+00  0.00000000E+00  0.00000000E+00
  0.00000000E+00
Force Field                                I                0
Atom Types                                 C   N=          19
                                                            
                                                            
                                                            
                                                
Int Atom Types                             I   N=          19
           0           0           0           0           0           0
           0           0           0           0           0           0
           0           0           0           0           0           0
           0
MM charges                                 R   N=          19
  0.00000000E+00  0.00000000E+00  0.00000000E+00  0.00000000E+00  0.00000000E+00
  0.00000000E+00  0.00000000E+00  0.00000000E+00  0.00000000E+00  0.00000000E+00
  0.00000000E+00  0.00000000E+00  0.00000000E+00  0.00000000E+00  0.00000000E+00
  0.00000000E+00  0.00000000E+00  0.00000000E+00  0.00000000E+00
Integer atomic weights                     I   N=          19
          12           1           1           1          12          16
          14           1          12           1           1          12
          16          14           1          12           1           1
           1
Real atomic weights                        R   N=          19
  1.20000000E+01  1.00782504E+00  1.00782504E+00  1.00782504E+00  1.20000000E+01
  1.59949146E+01  1.40030740E+01  1.00782504E+00  1.20000000E+01  1.00782504E+00
  1.00782504E+00  1.20000000E+01  1.59949146E+01  1.40030740E+01  1.00782504E+00
  1.20000000E+01  1.00782504E+00  1.00782504E+00  1.00782504E+00
Atom fragment info                         I   N=          19
           0           0           0           0           0           0
           0           0           0           0           0           0
           0           0           0           0           0           0
           0
Atom residue num                           I   N=          19
           0           0           0           0           0           0
           0           0           0           0           0           0
           0           0           0           0           0           0
           0
Nuclear spins                              I   N=          19
           0           1           1           1           0           0
           2           1           0           1           1           0
           0           2           1           0           1           1
           1
Nuclear ZEff                               R   N=          19
 -3.60000000E+00 -1.00000000E+00 -1.00000000E+00 -1.00000000E+00 -3.60000000E+00
 -5.60000000E+00 -4.55000000E+00 -1.00000000E+00 -3.60000000E+00 -1.00000000E+00
 -1.00000000E+00 -3.60000000E+00 -5.60000000E+00 -4.55000000E+00 -1.00000000E+00
 -3.60000000E+00 -1.00000000E+00 -1.00000000E+00 -1.00000000E+00
Nuclear ZNuc                               R   N=          19
  6.00000000E+00  1.00000000E+00  1.00000000E+00  1.00000000E+00  6.00000000E+00
  8.00000000E+00  7.00000000E+00  1.00000000E+00  6.00000000E+00  1.00000000E+00
  1.00000000E+00  6.00000000E+00  8.00000000E+00  7.00000000E+00  1.00000000E+00
  6.00000000E+00  1.00000000E+00  1.00000000E+00  1.00000000E+00
Nuclear QMom                               R   N=          19
  0.00000000E+00  0.00000000E+00  0.00000000E+00  0.00000000E+00  0.00000000E+00
  0.00000000E+00  2.04400000E+00  0.00000000E+00  0.00000000E+00  0.00000000E+00
  0.00000000E+00  0.00000000E+00  0.00000000E+00  2.04400000E+00  0.00000000E+00
  0.00000000E+00  0.00000000E+00  0.00000000E+00  0.00000000E+00
Nuclear GFac                               R   N=          19
  0.00000000E+00  2.79284600E+00  2.79284600E+00  2.79284600E+00  0.00000000E+00
  0.00000000E+00  4.03761000E-01  2.79284600E+00  0.00000000E+00  2.79284600E+00
  2.79284600E+00  0.00000000E+00  0.00000000E+00  4.03761000E-01  2.79284600E+00
  0.00000000E+00  2.79284600E+00  2.79284600E+00  2.79284600E+00
MicOpt                                     I   N=          19
          -1          -1          -1          -1          -1          -1
          -1          -1          -1          -1          -1          -1
          -1          -1          -1          -1          -1          -1
          -1
Number of residues                         I                0
Number of secondary structures             I                0
Number of contracted shells                I               56
Number of primitive shells                 I              139
Pure/Cartesian d shells                    I                1
Pure/Cartesian f shells                    I                0
Highest angular momentum                   I                1
Largest degree of contraction              I                6
Shell types                                I   N=          56
           0          -1          -1          -1           0           0
           0           0           0           0           0          -1
          -1          -1           0          -1          -1          -1
           0          -1          -1          -1           0           0
           0          -1          -1          -1           0           0
           0           0           0          -1          -1          -1
           0          -1          -1          -1           0          -1
          -1          -1           0           0           0          -1
          -1          -1           0           0           0           0
           0           0
Number of primitives per shell             I   N=          56
           6           3           1           1           3           1
           3           1           3           1           6           3
           1           1           6           3           1           1
           6           3           1           1           3           1
           6           3           1           1           3           1
           3           1           6           3           1           1
           6           3           1           1           6           3
           1           1           3           1           6           3
           1           1           3           1           3           1
           3           1
Shell to atom map                          I   N=          56
           1           1           1           1           2           2
           3           3           4           4           5           5
           5           5           6           6           6           6
           7           7           7           7           8           8
           9           9           9           9          10          10
          11          11          12          12          12          12
          13          13          13          13          14          14
          14          14          15          15          16          16
          16          16          17          17          18          18
          19          19
Primitive exponents                        R   N=         139
  3.04752488E+03  4.57369518E+02  1.03948685E+02  2.92101553E+01  9.28666296E+00
  3.16392696E+00  7.86827235E+00  1.88128854E+00  5.44249258E-01  1.68714478E-01
  4.38000000E-02  1.87311370E+01  2.82539436E+00  6.40121692E-01  1.61277759E-01
  1.87311370E+01  2.82539436E+00  6.40121692E-01  1.61277759E-01  1.87311370E+01
  2.82539436E+00  6.40121692E-01  1.61277759E-01  3.04752488E+03  4.57369518E+02
  1.03948685E+02  2.92101553E+01  9.28666296E+00  3.16392696E+00  7.86827235E+00
  1.88128854E+00  5.44249258E-01  1.68714478E-01  4.38000000E-02  5.48467166E+03
  8.25234946E+02  1.88046958E+02  5.29645000E+01  1.68975704E+01  5.79963534E+00
  1.55396162E+01  3.59993359E+00  1.01376175E+00  2.70005823E-01  8.45000000E-02
  4.17351146E+03  6.27457911E+02  1.42902093E+02  4.02343293E+01  1.28202129E+01
  4.39043701E+00  1.16263619E+01  2.71627981E+00  7.72218397E-01  2.12031498E-01
  6.39000000E-02  1.87311370E+01  2.82539436E+00  6.40121692E-01  1.61277759E-01
  3.04752488E+03  4.57369518E+02  1.03948685E+02  2.92101553E+01  9.28666296E+00
  3.16392696E+00  7.86827235E+00  1.88128854E+00  5.44249258E-01  1.68714478E-01
  4.38000000E-02  1.87311370E+01  2.82539436E+00  6.40121692E-01  1.61277759E-01
  1.87311370E+01  2.82539436E+00  6.40121692E-01  1.61277759E-01  3.04752488E+03
  4.57369518E+02  1.03948685E+02  2.92101553E+01  9.28666296E+00  3.16392696E+00
  7.86827235E+00  1.88128854E+00  5.44249258E-01  1.68714478E-01  4.38000000E-02
  5.48467166E+03  8.25234946E+02  1.88046958E+02  5.29645000E+01  1.68975704E+01
  5.79963534E+00  1.55396162E+01  3.59993359E+00  1.01376175E+00  2.70005823E-01
  8.45000000E-02  4.17351146E+03  6.27457911E+02  1.42902093E+02  4.02343293E+01
  1.28202129E+01  4.39043701E+00  1.16263619E+01  2.71627981E+00  7.72218397E-01
  2.12031498E-01  6.39000000E-02  1.87311370E+01  2.82539436E+00  6.40121692E-01
  1.61277759E-01  3.04752488E+03  4.57369518E+02  1.03948685E+02  2.92101553E+01
  9.28666296E+00  3.16392696E+00  7.86827235E+00  1.88128854E+00  5.44249258E-01
  1.68714478E-01  4.38000000E-02  1.87311370E+01  2.82539436E+00  6.40121692E-01
  1.61277759E-01  1.87311370E+01  2.82539436E+00  6.40121692E-01  1.61277759E-01
  1.87311370E+01  2.82539436E+00  6.40121692E-01  1.61277759E-01
Contraction coefficients                   R   N=         139
  1.83473713E-03  1.40373228E-02  6.88426223E-02  2.32184443E-01  4.67941348E-01
  3.62311985E-01 -1.19332420E-01 -1.60854152E-01  1.14345644E+00  1.00000000E+00
  1.00000000E+00  3.34946043E-02  2.34726953E-01  8.13757326E-01  1.00000000E+00
  3.34946043E-02  2.34726953E-01  8.13757326E-01  1.00000000E+00  3.34946043E-02
  2.34726953E-01  8.13757326E-01  1.00000000E+00  1.83473713E-03  1.40373228E-02
  6.88426223E-02  2.32184443E-01  4.67941348E-01  3.62311985E-01 -1.19332420E-01
 -1.60854152E-01  1.14345644E+00  1.00000000E+00  1.00000000E+00  1.83107443E-03
  1.39501722E-02  6.84450781E-02  2.32714336E-01  4.70192898E-01  3.58520853E-01
 -1.10777550E-01 -1.48026263E-01  1.13076702E+00  1.00000000E+00  1.00000000E+00
  1.83477216E-03  1.39946270E-02  6.85865518E-02  2.32240873E-01  4.69069948E-01
  3.60455199E-01 -1.14961182E-01 -1.69117479E-01  1.14585195E+00  1.00000000E+00
  1.00000000E+00  3.34946043E-02  2.34726953E-01  8.13757326E-01  1.00000000E+00
  1.83473713E-03  1.40373228E-02  6.88426223E-02  2.32184443E-01  4.67941348E-01
  3.62311985E-01 -1.19332420E-01 -1.60854152E-01  1.14345644E+00  1.00000000E+00
  1.00000000E+00  3.34946043E-02  2.34726953E-01  8.13757326E-01  1.00000000E+00
  3.34946043E-02  2.34726953E-01  8.13757326E-01  1.00000000E+00  1.83473713E-03
  1.40373228E-02  6.88426223E-02  2.32184443E-01  4.67941348E-01  3.62311985E-01
 -1.19332420E-01 -1.60854152E-01  1.14345644E+00  1.00000000E+00  1.00000000E+00
  1.83107443E-03  1.39501722E-02  6.84450781E-02  2.32714336E-01  4.70192898E-01
  3.58520853E-01 -1.10777550E-01 -1.48026263E-01  1.13076702E+00  1.00000000E+00
  1.00000000E+00  1.83477216E-03  1.39946270E-02  6.85865518E-02  2.32240873E-01
  4.69069948E-01  3.60455199E-01 -1.14961182E-01 -1.69117479E-01  1.14585195E+00
  1.00000000E+00  1.00000000E+00  3.34946043E-02  2.34726953E-01  8.13757326E-01
  1.00000000E+00  1.83473713E-03  1.40373228E-02  6.88426223E-02  2.32184443E-01
  4.67941348E-01  3.62311985E-01 -1.19332420E-01 -1.60854152E-01  1.14345644E+00
  1.00000000E+00  1.00000000E+00  3.34946043E-02  2.34726953E-01  8.13757326E-01
  1.00000000E+00  3.34946043E-02  2.34726953E-01  8.13757326E-01  1.00000000E+00
  3.34946043E-02  2.34726953E-01  8.13757326E-01  1.00000000E+00
P(S=P) Contraction coefficients            R   N=         139
  0.00000000E+00  0.00000000E+00  0.00000000E+00  0.00000000E+00  0.00000000E+00
  0.00000000E+00  6.89990666E-02  3.16423961E-01  7.44308291E-01  1.00000000E+00
  1.00000000E+00  0.00000000E+00  0.00000000E+00  0.00000000E+00  0.00000000E+00
  0.00000000E+00  0.00000000E+00  0.00000000E+00  0.00000000E+00  0.00000000E+00
  0.00000000E+00  0.00000000E+00  0.00000000E+00  0.00000000E+00  0.00000000E+00
  0.00000000E+00  0.00000000E+00  0.00000000E+00  0.00000000E+00  6.89990666E-02
  3.16423961E-01  7.44308291E-01  1.00000000E+00  1.00000000E+00  0.00000000E+00
  0.00000000E+00  0.00000000E+00  0.00000000E+00  0.00000000E+00  0.00000000E+00
  7.08742682E-02  3.39752839E-01  7.27158577E-01  1.00000000E+00  1.00000000E+00
  0.00000000E+00  0.00000000E+00  0.00000000E+00  0.00000000E+00  0.00000000E+00
  0.00000000E+00  6.75797439E-02  3.23907296E-01  7.40895140E-01  1.00000000E+00
  1.00000000E+00  0.00000000E+00  0.00000000E+00  0.00000000E+00  0.00000000E+00
  0.00000000E+00  0.00000000E+00  0.00000000E+00  0.00000000E+00  0.00000000E+00
  0.00000000E+00  6.89990666E-02  3.16423961E-01  7.44308291E-01  1.00000000E+00
  1.00000000E+00  0.00000000E+00  0.00000000E+00  0.00000000E+00  0.00000000E+00
  0.00000000E+00  0.00000000E+00  0.00000000E+00  0.00000000E+00  0.00000000E+00
  0.00000000E+00  0.00000000E+00  0.00000000E+00  0.00000000E+00  0.00000000E+00
  6.89990666E-02  3.16423961E-01  7.44308291E-01  1.00000000E+00  1.00000000E+00
  0.00000000E+00  0.00000000E+00  0.00000000E+00  0.00000000E+00  0.00000000E+00
  0.00000000E+00  7.08742682E-02  3.39752839E-01  7.27158577E-01  1.00000000E+00
  1.00000000E+00  0.00000000E+00  0.00000000E+00  0.00000000E+00  0.00000000E+00
  0.00000000E+00  0.00000000E+00  6.75797439E-02  3.23907296E-01  7.40895140E-01
  1.00000000E+00  1.00000000E+00  0.00000000E+00  0.00000000E+00  0.00000000E+00
  0.00000000E+00  0.00000000E+00  0.00000000E+00  0.00000000E+00  0.00000000E+00
  0.00000000E+00  0.00000000E+00  6.89990666E-02  3.16423961E-01  7.44308291E-01
  1.00000000E+00  1.00000000E+00  0.00000000E+00  0.00000000E+00  0.00000000E+00
  0.00000000E+00  0.00000000E+00  0.00000000E+00  0.00000000E+00  0.00000000E+00
  0.00000000E+00  0.00000000E+00  0.00000000E+00  0.00000000E+00
Coordinates of each shell                  R   N=         168
 -6.55291437E+00  1.65661798E+00  2.09528905E-04 -6.55291437E+00  1.65661798E+00
  2.09528905E-04 -6.55291437E+00  1.65661798E+00  2.09528905E-04 -6.55291437E+00
  1.65661798E+00  2.09528905E-04 -5.85237377E+00  3.60536182E+00  1.83073840E-05
 -5.85237377E+00  3.60536182E+00  1.83073840E-05 -7.73441731E+00  1.35138942E+00
 -1.67452805E+00 -7.73441731E+00  1.35138942E+00 -1.67452805E+00 -7.73402865E+00
  1.35156482E+00  1.67525055E+00 -7.73402865E+00  1.35156482E+00  1.67525055E+00
 -4.43505698E+00 -2.96517740E-01  4.18097272E-05 -4.43505698E+00 -2.96517740E-01
  4.18097272E-05 -4.43505698E+00 -2.96517740E-01  4.18097272E-05 -4.43505698E+00
 -2.96517740E-01  4.18097272E-05 -4.89815016E+00 -2.60955138E+00  2.56925713E-05
 -4.89815016E+00 -2.60955138E+00  2.56925713E-05 -4.89815016E+00 -2.60955138E+00
  2.56925713E-05 -4.89815016E+00 -2.60955138E+00  2.56925713E-05 -2.01083725E+00
  5.69004662E-01 -1.11005124E-04 -2.01083725E+00  5.69004662E-01 -1.11005124E-04
 -2.01083725E+00  5.69004662E-01 -1.11005124E-04 -2.01083725E+00  5.69004662E-01
 -1.11005124E-04 -1.56099885E+00  2.42860662E+00 -1.24735063E-04 -1.56099885E+00
  2.42860662E+00 -1.24735063E-04  9.37216237E-02 -1.19178349E+00 -2.91120961E-04
  9.37216237E-02 -1.19178349E+00 -2.91120961E-04  9.37216237E-02 -1.19178349E+00
 -2.91120961E-04  9.37216237E-02 -1.19178349E+00 -2.91120961E-04 -9.81177228E-03
 -2.42834993E+00 -1.67037007E+00 -9.81177228E-03 -2.42834993E+00 -1.67037007E+00
 -9.89659466E-03 -2.42876660E+00  1.66946571E+00 -9.89659466E-03 -2.42876660E+00
  1.66946571E+00  2.59185995E+00  2.77644975E-01 -8.30850165E-05  2.59185995E+00
  2.77644975E-01 -8.30850165E-05  2.59185995E+00  2.77644975E-01 -8.30850165E-05
  2.59185995E+00  2.77644975E-01 -8.30850165E-05  2.64080442E+00  2.63062710E+00
 -1.74533864E-04  2.64080442E+00  2.63062710E+00 -1.74533864E-04  2.64080442E+00
  2.63062710E+00 -1.74533864E-04  2.64080442E+00  2.63062710E+00 -1.74533864E-04
  4.72006081E+00 -1.15718459E+00  1.35636510E-04  4.72006081E+00 -1.15718459E+00
  1.35636510E-04  4.72006081E+00 -1.15718459E+00  1.35636510E-04  4.72006081E+00
 -1.15718459E+00  1.35636510E-04  4.56057835E+00 -3.05771306E+00  2.77884613E-04
  4.56057835E+00 -3.05771306E+00  2.77884613E-04  7.25762196E+00 -4.33709736E-02
  1.94495995E-04  7.25762196E+00 -4.33709736E-02  1.94495995E-04  7.25762196E+00