Gaussian input prepared by ASE                                          
FOpt      RBMK                                                        6-31+G              
Number of atoms                            I               19
Info1-9                                    I   N=           9
          29          29           0           0           0         110
           2          18        -402
Full Title                                 C   N=           3
Gaussian input prepared by ASE      
Route                                      C   N=           3
#P bmk/6-31+g opt(modredun,calcfc)  
Charge                                     I                0
Multiplicity                               I                1
Number of electrons                        I               70
Number of alpha electrons                  I               35
Number of beta electrons                   I               35
Number of basis functions                  I              137
Number of independent functions            I              137
Number of point charges in /Mol/           I                0
Number of translation vectors              I                0
Atomic numbers                             I   N=          19
           6           1           1           1           6           8
           7           1           6           1           1           6
           8           7           1           6           1           1
           1
Nuclear charges                            R   N=          19
  6.00000000E+00  1.00000000E+00  1.00000000E+00  1.00000000E+00  6.00000000E+00
  8.00000000E+00  7.00000000E+00  1.00000000E+00  6.00000000E+00  1.00000000E+00
  1.00000000E+00  6.00000000E+00  8.00000000E+00  7.00000000E+00  1.00000000E+00
  6.00000000E+00  1.00000000E+00  1.00000000E+00  1.00000000E+00
Current cartesian coordinates              R   N=          57
  6.28289861E+00 -3.59070913E-01 -1.21421639E+00  6.51875516E+00  1.31227035E+00
 -2.41398008E+00  7.70117926E+00 -3.08301900E-01  2.99443992E-01  6.60095407E+00
 -2.06878218E+00 -2.33540681E+00  3.66735959E+00 -5.03096227E-01 -5.80563201E-03
  2.87112759E+00 -2.46726574E+00  1.02906065E+00  2.26002723E+00  1.65991875E+00
 -5.27755075E-03  2.86334682E+00  3.19214600E+00 -9.64130743E-01 -4.04680773E-02
  1.88814055E+00  1.50809239E+00 -2.76729149E-01  3.87371504E+00  2.03342619E+00
  2.16168657E-01  7.45712767E-01  3.21785228E+00 -2.50688897E+00  1.11478526E+00
  1.63439702E-01 -3.86399283E+00  2.73444562E+00 -8.78310466E-01 -3.14614845E+00
 -1.36367926E+00  2.96405189E-01 -1.85768656E+00 -2.60136036E+00  9.83342986E-01
 -5.57545038E+00 -2.27968521E+00 -6.73377285E-01 -5.86234125E+00 -4.21922085E+00
 -1.86617693E-02 -7.10017483E+00 -1.06950313E+00  3.25938113E-02 -5.62240632E+00
 -2.23423202E+00 -2.74717147E+00
Number of symbols in /Mol/                 I                0
Redundant internal dimensions              I   N=           4
          81          19          30          32
Redundant internal coordinate indices      I   N=         324
           1           2           0           0           1           3
           0           0           1           4           0           0
           1           5           0           0           1          16
           0           0           5           6           0           0
           5           7           0           0           7           8
           0           0           7           9           0           0
           9          10           0           0           9          11
           0           0           9          12           0           0
          12          13           0           0          12          14
           0           0          14          15           0           0
          14          16           0           0          16          17
           0           0          16          18           0           0
          16          19           0           0           2           1
           3           0           2           1           4           0
           2           1           5           0           3           1
           4           0           3           1           5           0
           4           1           5           0           1           5
           6           0           1           5           7           0
           6           5           7           0           5           7
           8           0           5           7           9           0
           8           7           9           0           7           9
          10           0           7           9          11           0
           7           9          12           0          10           9
          11           0          10           9          12           0
          11           9          12           0           9          12
          13           0           9          12          14           0
          13          12          14           0          12          14
          15           0          12          14          16           0
          15          14          16           0          14          16
          17           0          14          16          18           0
          14          16          19           0          17          16
          18           0          17          16          19           0
          18          16          19           0           2           1
           5           6           2           1           5           7
           3           1           5           6           3           1
           5           7           4           1           5           6
           4           1           5           7           1           5
           7           8           1           5           7           9
           6           5           7           8           6           5
           7           9           5           7           9          10
           5           7           9          11           5           7
           9          12           8           7           9          10
           8           7           9          11           8           7
           9          12           7           9          12          13
           7           9          12          14          10           9
          12          13          10           9          12          14
          11           9          12          13          11           9
          12          14           9          12          14          15
           9          12          14          16          13          12
          14          15          13          12          14          16
          12          14          16          17          12          14
          16          18          12          14          16          19
          15          14          16          17          15          14
          16          18          15          14          16          19
Redundant internal coordinates             R   N=          81
  2.07085559E+00  2.07491331E+00  2.06913988E+00  2.88479536E+00  1.20250450E+01
  2.35857912E+00  2.58054615E+00  1.90554830E+00  2.76308748E+00  2.06743826E+00
  2.07226508E+00  2.91365771E+00  2.35590195E+00  2.56302924E+00  1.91412436E+00
  2.77147124E+00  2.06706489E+00  2.07068117E+00  2.07482365E+00  1.90185647E+00
  1.91287069E+00  1.96735157E+00  1.88645276E+00  1.89165106E+00  1.90190791E+00
  2.13111017E+00  2.04058526E+00  2.11044577E+00  2.09579880E+00  2.12163624E+00
  2.06325356E+00  1.88982420E+00  1.87890082E+00  2.01539078E+00  1.91130688E+00
  1.84984876E+00  1.91694348E+00  2.10507014E+00  2.03069366E+00  2.14608014E+00
  2.06689497E+00  2.11773740E+00  2.09658394E+00  1.89752451E+00  1.91024499E+00
  1.94157271E+00  1.91579414E+00  1.91133412E+00  1.88735693E+00  2.90452106E+00
 -2.85769942E-01 -1.27209426E+00  1.82080005E+00  7.76891761E-01 -2.41339924E+00
  1.31795489E-01 -2.93255376E+00 -3.05788194E+00  1.60954120E-01  2.62428389E+00
  5.59416381E-01 -1.58895320E+00 -4.41457555E-01 -2.50632506E+00  1.62849067E+00
 -1.66771876E+00  1.52789318E+00  4.24255049E-01 -2.66331832E+00  2.48735146E+00
 -6.00221910E-01 -1.81800195E-01  3.02712453E+00  3.01520386E+00 -5.90567207E-02
 -2.93346773E+00 -8.40969874E-01  1.24361974E+00  2.76588888E-01  2.36908674E+00
 -1.82950895E+00
ZRed-IntVec                                I   N=          81
           0           0           0           0          -1           0
           0           0           0           0           0           0
           0           0           0           0           0           0
           0           0           0           0           0           0
           0           0           0           0           0           0
           0           0           0           0           0           0
           0           0           0           0           0           0
           0           0           0           0           0           0
           0           0           0           0           0           0
           0           0           0           0           0           0
           0           0           0           0           0           0
           0           0           0           0           0           0
           0           0           0           0           0           0
           0           0           0
ZRed-FPVec                                 R   N=          81
  0.00000000E+00  0.00000000E+00  0.00000000E+00  0.00000000E+00  0.00000000E+00
  0.00000000E+00  0.00000000E+00  0.00000000E+00  0.00000000E+00  0.00000000E+00
  0.00000000E+00  0.00000000E+00  0.00000000E+00  0.00000000E+00  0.00000000E+00
  0.00000000E+00  0.00000000E+00  0.00000000E+00  0.00000000E+00  0.00000000E+00
  0.00000000E+00  0.00000000E+00  0.00000000E+00  0.00000000E+00  0.00000000E+00
  0.00000000E+00  0.00000000E+00  0.00000000E+00  0.00000000E+00  0.00000000E+00
  0.00000000E+00  0.00000000E+00  0.00000000E+00  0.00000000E+00  0.00000000E+00
  0.00000000E+00  0.00000000E+00  0.00000000E+00  0.00000000E+00  0.00000000E+00
  0.00000000E+00  0.00000000E+00  0.00000000E+00  0.00000000E+00  0.00000000E+00
  0.00000000E+00  0.00000000E+00  0.00000000E+00  0.00000000E+00  0.00000000E+00
  0.00000000E+00  0.00000000E+00  0.00000000E+00  0.00000000E+00  0.00000000E+00
  0.00000000E+00  0.00000000E+00  0.00000000E+00  0.00000000E+00  0.00000000E+00
  0.00000000E+00  0.00000000E+00  0.00000000E+00  0.00000000E+00  0.00000000E+00
  0.00000000E+00  0.00000000E+00  0.00000000E+00  0.00000000E+00  0.00000000E+00
  0.00000000E+00  0.00000000E+00  0.00000000E+00  0.00000000E+00  0.00000000E+00
  0.00000000E+00  0.00000000E+00  0.00000000E+00  0.00000000E+00  0.00000000E+00
  0.00000000E+00
ZRed-Constraint1                           R   N=          81
  2.01811910E+00  1.95825444E+00  2.08246389E+00  3.05362338E+00  1.20250450E+01
  2.36105315E+00  2.57656125E+00  1.90569739E+00  2.76546001E+00  2.06594075E+00
  2.07461504E+00  2.91345174E+00  2.35681182E+00  2.56031269E+00  1.91774674E+00
  2.93941228E+00  2.03600816E+00  1.94468990E+00  2.08047846E+00  2.02687050E+00
  1.93953182E+00  1.88516237E+00  1.95588256E+00  1.84283780E+00  1.79407161E+00
  2.13154616E+00  2.03806759E+00  2.11161190E+00  2.09079108E+00  2.13034842E+00
  2.05942289E+00  1.88985612E+00  1.88420157E+00  2.01804678E+00  1.91075842E+00
  1.85118770E+00  1.90801478E+00  2.10290103E+00  2.03044899E+00  2.14859636E+00
  2.06573654E+00  2.10178326E+00  2.11566199E+00  1.80924588E+00  1.87086303E+00
  1.83211752E+00  2.03321660E+00  1.92795287E+00  1.97052826E+00  2.93629475E+00
 -2.71953884E-01 -1.16775208E+00  1.90718460E+00  8.84700794E-01 -2.32354784E+00
  1.46450802E-01 -2.91578927E+00 -3.06098550E+00  1.59959738E-01  2.70345684E+00
  6.36312438E-01 -1.50634927E+00 -3.60148134E-01 -2.42729254E+00  1.71323106E+00
 -1.87746298E+00  1.31596703E+00  2.17122813E-01 -2.87263249E+00  2.27571616E+00
 -8.14039142E-01 -1.27205639E-01  3.01720302E+00  3.06771559E+00 -7.10610552E-02
 -2.96195211E+00 -8.01844077E-01  1.29768351E+00  1.82538217E-01  2.34264624E+00
 -1.84101147E+00
ZRed-Constraint2                           R   N=          81
  0.00000000E+00  0.00000000E+00  0.00000000E+00  0.00000000E+00  1.20250450E+01
  0.00000000E+00  0.00000000E+00  0.00000000E+00  0.00000000E+00  0.00000000E+00
  0.00000000E+00  0.00000000E+00  0.00000000E+00  0.00000000E+00  0.00000000E+00
  0.00000000E+00  0.00000000E+00  0.00000000E+00  0.00000000E+00  0.00000000E+00
  0.00000000E+00  0.00000000E+00  0.00000000E+00  0.00000000E+00  0.00000000E+00
  0.00000000E+00  0.00000000E+00  0.00000000E+00  0.00000000E+00  0.00000000E+00
  0.00000000E+00  0.00000000E+00  0.00000000E+00  0.00000000E+00  0.00000000E+00
  0.00000000E+00  0.00000000E+00  0.00000000E+00  0.00000000E+00  0.00000000E+00
  0.00000000E+00  0.00000000E+00  0.00000000E+00  0.00000000E+00  0.00000000E+00
  0.00000000E+00  0.00000000E+00  0.00000000E+00  0.00000000E+00  0.00000000E+00
  0.00000000E+00  0.00000000E+00  0.00000000E+00  0.00000000E+00  0.00000000E+00
  0.00000000E+00  0.00000000E+00  0.00000000E+00  0.00000000E+00  0.00000000E+00
  0.00000000E+00  0.00000000E+00  0.00000000E+00  0.00000000E+00  0.00000000E+00
  0.00000000E+00  0.00000000E+00  0.00000000E+00  0.00000000E+00  0.00000000E+00
  0.00000000E+00  0.00000000E+00  0.00000000E+00  0.00000000E+00  0.00000000E+00
  0.00000000E+00  0.00000000E+00  0.00000000E+00  0.00000000E+00  0.00000000E+00
  0.00000000E+00
Force Field                                I                0
Atom Types                                 C   N=          19
                                                            
                                                            
                                                            
                                                
Int Atom Types                             I   N=          19
           0           0           0           0           0           0
           0           0           0           0           0           0
           0           0           0           0           0           0
           0
MM charges                                 R   N=          19
  0.00000000E+00  0.00000000E+00  0.00000000E+00  0.00000000E+00  0.00000000E+00
  0.00000000E+00  0.00000000E+00  0.00000000E+00  0.00000000E+00  0.00000000E+00
  0.00000000E+00  0.00000000E+00  0.00000000E+00  0.00000000E+00  0.00000000E+00
  0.00000000E+00  0.00000000E+00  0.00000000E+00  0.00000000E+00
Integer atomic weights                     I   N=          19
          12           1           1           1          12          16
          14           1          12           1           1          12
          16          14           1          12           1           1
           1
Real atomic weights                        R   N=          19
  1.20000000E+01  1.00782504E+00  1.00782504E+00  1.00782504E+00  1.20000000E+01
  1.59949146E+01  1.40030740E+01  1.00782504E+00  1.20000000E+01  1.00782504E+00
  1.00782504E+00  1.20000000E+01  1.59949146E+01  1.40030740E+01  1.00782504E+00
  1.20000000E+01  1.00782504E+00  1.00782504E+00  1.00782504E+00
Atom fragment info                         I   N=          19
           0           0           0           0           0           0
           0           0           0           0           0           0
           0           0           0           0           0           0
           0
Atom residue num                           I   N=          19
           0           0           0           0           0           0
           0           0           0           0           0           0
           0           0           0           0           0           0
           0
Nuclear spins                              I   N=          19
           0           1           1           1           0           0
           2           1           0           1           1           0
           0           2           1           0           1           1
           1
Nuclear ZEff                               R   N=          19
 -3.60000000E+00 -1.00000000E+00 -1.00000000E+00 -1.00000000E+00 -3.60000000E+00
 -5.60000000E+00 -4.55000000E+00 -1.00000000E+00 -3.60000000E+00 -1.00000000E+00
 -1.00000000E+00 -3.60000000E+00 -5.60000000E+00 -4.55000000E+00 -1.00000000E+00
 -3.60000000E+00 -1.00000000E+00 -1.00000000E+00 -1.00000000E+00
Nuclear ZNuc                               R   N=          19
  6.00000000E+00  1.00000000E+00  1.00000000E+00  1.00000000E+00  6.00000000E+00
  8.00000000E+00  7.00000000E+00  1.00000000E+00  6.00000000E+00  1.00000000E+00
  1.00000000E+00  6.00000000E+00  8.00000000E+00  7.00000000E+00  1.00000000E+00
  6.00000000E+00  1.00000000E+00  1.00000000E+00  1.00000000E+00
Nuclear QMom                               R   N=          19
  0.00000000E+00  0.00000000E+00  0.00000000E+00  0.00000000E+00  0.00000000E+00
  0.00000000E+00  2.04400000E+00  0.00000000E+00  0.00000000E+00  0.00000000E+00
  0.00000000E+00  0.00000000E+00  0.00000000E+00  2.04400000E+00  0.00000000E+00
  0.00000000E+00  0.00000000E+00  0.00000000E+00  0.00000000E+00
Nuclear GFac                               R   N=          19
  0.00000000E+00  2.79284600E+00  2.79284600E+00  2.79284600E+00  0.00000000E+00
  0.00000000E+00  4.03761000E-01  2.79284600E+00  0.00000000E+00  2.79284600E+00
  2.79284600E+00  0.00000000E+00  0.00000000E+00  4.03761000E-01  2.79284600E+00
  0.00000000E+00  2.79284600E+00  2.79284600E+00  2.79284600E+00
MicOpt                                     I   N=          19
          -1          -1          -1          -1          -1          -1
          -1          -1          -1          -1          -1          -1
          -1          -1          -1          -1          -1          -1
          -1
Number of residues                         I                0
Number of secondary structures             I                0
Number of contracted shells                I               56
Number of primitive shells                 I              139
Pure/Cartesian d shells                    I                1
Pure/Cartesian f shells                    I                0
Highest angular momentum                   I                1
Largest degree of contraction              I                6
Shell types                                I   N=          56
           0          -1          -1          -1           0           0
           0           0           0           0           0          -1
          -1          -1           0          -1          -1          -1
           0          -1          -1          -1           0           0
           0          -1          -1          -1           0           0
           0           0           0          -1          -1          -1
           0          -1          -1          -1           0          -1
          -1          -1           0           0           0          -1
          -1          -1           0           0           0           0
           0           0
Number of primitives per shell             I   N=          56
           6           3           1           1           3           1
           3           1           3           1           6           3
           1           1           6           3           1           1
           6           3           1           1           3           1
           6           3           1           1           3           1
           3           1           6           3           1           1
           6           3           1           1           6           3
           1           1           3           1           6           3
           1           1           3           1           3           1
           3           1
Shell to atom map                          I   N=          56
           1           1           1           1           2           2
           3           3           4           4           5           5
           5           5           6           6           6           6
           7           7           7           7           8           8
           9           9           9           9          10          10
          11          11          12          12          12          12
          13          13          13          13          14          14
          14          14          15          15          16          16
          16          16          17          17          18          18
          19          19
Primitive exponents                        R   N=         139
  3.04752488E+03  4.57369518E+02  1.03948685E+02  2.92101553E+01  9.28666296E+00
  3.16392696E+00  7.86827235E+00  1.88128854E+00  5.44249258E-01  1.68714478E-01
  4.38000000E-02  1.87311370E+01  2.82539436E+00  6.40121692E-01  1.61277759E-01
  1.87311370E+01  2.82539436E+00  6.40121692E-01  1.61277759E-01  1.87311370E+01
  2.82539436E+00  6.40121692E-01  1.61277759E-01  3.04752488E+03  4.57369518E+02
  1.03948685E+02  2.92101553E+01  9.28666296E+00  3.16392696E+00  7.86827235E+00
  1.88128854E+00  5.44249258E-01  1.68714478E-01  4.38000000E-02  5.48467166E+03
  8.25234946E+02  1.88046958E+02  5.29645000E+01  1.68975704E+01  5.79963534E+00
  1.55396162E+01  3.59993359E+00  1.01376175E+00  2.70005823E-01  8.45000000E-02
  4.17351146E+03  6.27457911E+02  1.42902093E+02  4.02343293E+01  1.28202129E+01
  4.39043701E+00  1.16263619E+01  2.71627981E+00  7.72218397E-01  2.12031498E-01
  6.39000000E-02  1.87311370E+01  2.82539436E+00  6.40121692E-01  1.61277759E-01
  3.04752488E+03  4.57369518E+02  1.03948685E+02  2.92101553E+01  9.28666296E+00
  3.16392696E+00  7.86827235E+00  1.88128854E+00  5.44249258E-01  1.68714478E-01
  4.38000000E-02  1.87311370E+01  2.82539436E+00  6.40121692E-01  1.61277759E-01
  1.87311370E+01  2.82539436E+00  6.40121692E-01  1.61277759E-01  3.04752488E+03
  4.57369518E+02  1.03948685E+02  2.92101553E+01  9.28666296E+00  3.16392696E+00
  7.86827235E+00  1.88128854E+00  5.44249258E-01  1.68714478E-01  4.38000000E-02
  5.48467166E+03  8.25234946E+02  1.88046958E+02  5.29645000E+01  1.68975704E+01
  5.79963534E+00  1.55396162E+01  3.59993359E+00  1.01376175E+00  2.70005823E-01
  8.45000000E-02  4.17351146E+03  6.27457911E+02  1.42902093E+02  4.02343293E+01
  1.28202129E+01  4.39043701E+00  1.16263619E+01  2.71627981E+00  7.72218397E-01
  2.12031498E-01  6.39000000E-02  1.87311370E+01  2.82539436E+00  6.40121692E-01
  1.61277759E-01  3.04752488E+03  4.57369518E+02  1.03948685E+02  2.92101553E+01
  9.28666296E+00  3.16392696E+00  7.86827235E+00  1.88128854E+00  5.44249258E-01
  1.68714478E-01  4.38000000E-02  1.87311370E+01  2.82539436E+00  6.40121692E-01
  1.61277759E-01  1.87311370E+01  2.82539436E+00  6.40121692E-01  1.61277759E-01
  1.87311370E+01  2.82539436E+00  6.40121692E-01  1.61277759E-01
Contraction coefficients                   R   N=         139
  1.83473713E-03  1.40373228E-02  6.88426223E-02  2.32184443E-01  4.67941348E-01
  3.62311985E-01 -1.19332420E-01 -1.60854152E-01  1.14345644E+00  1.00000000E+00
  1.00000000E+00  3.34946043E-02  2.34726953E-01  8.13757326E-01  1.00000000E+00
  3.34946043E-02  2.34726953E-01  8.13757326E-01  1.00000000E+00  3.34946043E-02
  2.34726953E-01  8.13757326E-01  1.00000000E+00  1.83473713E-03  1.40373228E-02
  6.88426223E-02  2.32184443E-01  4.67941348E-01  3.62311985E-01 -1.19332420E-01
 -1.60854152E-01  1.14345644E+00  1.00000000E+00  1.00000000E+00  1.83107443E-03
  1.39501722E-02  6.84450781E-02  2.32714336E-01  4.70192898E-01  3.58520853E-01
 -1.10777550E-01 -1.48026263E-01  1.13076702E+00  1.00000000E+00  1.00000000E+00
  1.83477216E-03  1.39946270E-02  6.85865518E-02  2.32240873E-01  4.69069948E-01
  3.60455199E-01 -1.14961182E-01 -1.69117479E-01  1.14585195E+00  1.00000000E+00
  1.00000000E+00  3.34946043E-02  2.34726953E-01  8.13757326E-01  1.00000000E+00
  1.83473713E-03  1.40373228E-02  6.88426223E-02  2.32184443E-01  4.67941348E-01
  3.62311985E-01 -1.19332420E-01 -1.60854152E-01  1.14345644E+00  1.00000000E+00
  1.00000000E+00  3.34946043E-02  2.34726953E-01  8.13757326E-01  1.00000000E+00
  3.34946043E-02  2.34726953E-01  8.13757326E-01  1.00000000E+00  1.83473713E-03
  1.40373228E-02  6.88426223E-02  2.32184443E-01  4.67941348E-01  3.62311985E-01
 -1.19332420E-01 -1.60854152E-01  1.14345644E+00  1.00000000E+00  1.00000000E+00
  1.83107443E-03  1.39501722E-02  6.84450781E-02  2.32714336E-01  4.70192898E-01
  3.58520853E-01 -1.10777550E-01 -1.48026263E-01  1.13076702E+00  1.00000000E+00
  1.00000000E+00  1.83477216E-03  1.39946270E-02  6.85865518E-02  2.32240873E-01
  4.69069948E-01  3.60455199E-01 -1.14961182E-01 -1.69117479E-01  1.14585195E+00
  1.00000000E+00  1.00000000E+00  3.34946043E-02  2.34726953E-01  8.13757326E-01
  1.00000000E+00  1.83473713E-03  1.40373228E-02  6.88426223E-02  2.32184443E-01
  4.67941348E-01  3.62311985E-01 -1.19332420E-01 -1.60854152E-01  1.14345644E+00
  1.00000000E+00  1.00000000E+00  3.34946043E-02  2.34726953E-01  8.13757326E-01
  1.00000000E+00  3.34946043E-02  2.34726953E-01  8.13757326E-01  1.00000000E+00
  3.34946043E-02  2.34726953E-01  8.13757326E-01  1.00000000E+00
P(S=P) Contraction coefficients            R   N=         139
  0.00000000E+00  0.00000000E+00  0.00000000E+00  0.00000000E+00  0.00000000E+00
  0.00000000E+00  6.89990666E-02  3.16423961E-01  7.44308291E-01  1.00000000E+00
  1.00000000E+00  0.00000000E+00  0.00000000E+00  0.00000000E+00  0.00000000E+00
  0.00000000E+00  0.00000000E+00  0.00000000E+00  0.00000000E+00  0.00000000E+00
  0.00000000E+00  0.00000000E+00  0.00000000E+00  0.00000000E+00  0.00000000E+00
  0.00000000E+00  0.00000000E+00  0.00000000E+00  0.00000000E+00  6.89990666E-02
  3.16423961E-01  7.44308291E-01  1.00000000E+00  1.00000000E+00  0.00000000E+00
  0.00000000E+00  0.00000000E+00  0.00000000E+00  0.00000000E+00  0.00000000E+00
  7.08742682E-02  3.39752839E-01  7.27158577E-01  1.00000000E+00  1.00000000E+00
  0.00000000E+00  0.00000000E+00  0.00000000E+00  0.00000000E+00  0.00000000E+00
  0.00000000E+00  6.75797439E-02  3.23907296E-01  7.40895140E-01  1.00000000E+00
  1.00000000E+00  0.00000000E+00  0.00000000E+00  0.00000000E+00  0.00000000E+00
  0.00000000E+00  0.00000000E+00  0.00000000E+00  0.00000000E+00  0.00000000E+00
  0.00000000E+00  6.89990666E-02  3.16423961E-01  7.44308291E-01  1.00000000E+00
  1.00000000E+00  0.00000000E+00  0.00000000E+00  0.00000000E+00  0.00000000E+00
  0.00000000E+00  0.00000000E+00  0.00000000E+00  0.00000000E+00  0.00000000E+00
  0.00000000E+00  0.00000000E+00  0.00000000E+00  0.00000000E+00  0.00000000E+00
  6.89990666E-02  3.16423961E-01  7.44308291E-01  1.00000000E+00  1.00000000E+00
  0.00000000E+00  0.00000000E+00  0.00000000E+00  0.00000000E+00  0.00000000E+00
  0.00000000E+00  7.08742682E-02  3.39752839E-01  7.27158577E-01  1.00000000E+00
  1.00000000E+00  0.00000000E+00  0.00000000E+00  0.00000000E+00  0.00000000E+00
  0.00000000E+00  0.00000000E+00  6.75797439E-02  3.23907296E-01  7.40895140E-01
  1.00000000E+00  1.00000000E+00  0.00000000E+00  0.00000000E+00  0.00000000E+00
  0.00000000E+00  0.00000000E+00  0.00000000E+00  0.00000000E+00  0.00000000E+00
  0.00000000E+00  0.00000000E+00  6.89990666E-02  3.16423961E-01  7.44308291E-01
  1.00000000E+00  1.00000000E+00  0.00000000E+00  0.00000000E+00  0.00000000E+00
  0.00000000E+00  0.00000000E+00  0.00000000E+00  0.00000000E+00  0.00000000E+00
  0.00000000E+00  0.00000000E+00  0.00000000E+00  0.00000000E+00
Coordinates of each shell                  R   N=         168
  6.28289861E+00 -3.59070913E-01 -1.21421639E+00  6.28289861E+00 -3.59070913E-01
 -1.21421639E+00  6.28289861E+00 -3.59070913E-01 -1.21421639E+00  6.28289861E+00
 -3.59070913E-01 -1.21421639E+00  6.51875516E+00  1.31227035E+00 -2.41398008E+00
  6.51875516E+00  1.31227035E+00 -2.41398008E+00  7.70117926E+00 -3.08301900E-01
  2.99443992E-01  7.70117926E+00 -3.08301900E-01  2.99443992E-01  6.60095407E+00
 -2.06878218E+00 -2.33540681E+00  6.60095407E+00 -2.06878218E+00 -2.33540681E+00
  3.66735959E+00 -5.03096227E-01 -5.80563201E-03  3.66735959E+00 -5.03096227E-01
 -5.80563201E-03  3.66735959E+00 -5.03096227E-01 -5.80563201E-03  3.66735959E+00
 -5.03096227E-01 -5.80563201E-03  2.87112759E+00 -2.46726574E+00  1.02906065E+00
  2.87112759E+00 -2.46726574E+00  1.02906065E+00  2.87112759E+00 -2.46726574E+00
  1.02906065E+00  2.87112759E+00 -2.46726574E+00  1.02906065E+00  2.26002723E+00
  1.65991875E+00 -5.27755075E-03  2.26002723E+00  1.65991875E+00 -5.27755075E-03
  2.26002723E+00  1.65991875E+00 -5.27755075E-03  2.26002723E+00  1.65991875E+00
 -5.27755075E-03  2.86334682E+00  3.19214600E+00 -9.64130743E-01  2.86334682E+00
  3.19214600E+00 -9.64130743E-01 -4.04680773E-02  1.88814055E+00  1.50809239E+00
 -4.04680773E-02  1.88814055E+00  1.50809239E+00 -4.04680773E-02  1.88814055E+00
  1.50809239E+00 -4.04680773E-02  1.88814055E+00  1.50809239E+00 -2.76729149E-01
  3.87371504E+00  2.03342619E+00 -2.76729149E-01  3.87371504E+00  2.03342619E+00
  2.16168657E-01  7.45712767E-01  3.21785228E+00  2.16168657E-01  7.45712767E-01
  3.21785228E+00 -2.50688897E+00  1.11478526E+00  1.63439702E-01 -2.50688897E+00
  1.11478526E+00  1.63439702E-01 -2.50688897E+00  1.11478526E+00  1.63439702E-01
 -2.50688897E+00  1.11478526E+00  1.63439702E-01 -3.86399283E+00  2.73444562E+00
 -8.78310466E-01 -3.86399283E+00  2.73444562E+00 -8.78310466E-01 -3.86399283E+00
  2.73444562E+00 -8.78310466E-01 -3.86399283E+00  2.73444562E+00 -8.78310466E-01
 -3.14614845E+00 -1.36367926E+00  2.96405189E-01 -3.14614845E+00 -1.36367926E+00
  2.96405189E-01 -3.14614845E+00 -1.36367926E+00  2.96405189E-01 -3.14614845E+00
 -1.36367926E+00  2.96405189E-01 -1.85768656E+00 -2.60136036E+00  9.83342986E-01
 -1.85768656E+00 -2.60136036E+00  9.83342986E-01 -5.57545038E+00 -2.27968521E+00
 -6.73377285E-01 -5.57545038E+00 -2.27968521E+00 -6.73377285E-01 -5.57545038E+00