Gaussian input prepared by ASE                                          
Freq      RBMK                                                        6-31+G              
Number of atoms                            I               19
Info1-9                                    I   N=           9
          30          30        1002           0           0         100
           6          18        -402
Full Title                                 C   N=           3
Gaussian input prepared by ASE      
Route                                      C   N=           6
#P Geom=AllCheck Guess=TCheck SCRF=Check GenChk RBMK/6-31+G 
Freq        
Charge                                     I                0
Multiplicity                               I                1
Number of electrons                        I               70
Number of alpha electrons                  I               35
Number of beta electrons                   I               35
Number of basis functions                  I              137
Number of independent functions            I              137
Number of point charges in /Mol/           I                0
Number of translation vectors              I                0
Atomic numbers                             I   N=          19
           6           1           1           1           6           8
           7           1           6           1           1           6
           8           7           1           6           1           1
           1
Nuclear charges                            R   N=          19
  6.00000000E+00  1.00000000E+00  1.00000000E+00  1.00000000E+00  6.00000000E+00
  8.00000000E+00  7.00000000E+00  1.00000000E+00  6.00000000E+00  1.00000000E+00
  1.00000000E+00  6.00000000E+00  8.00000000E+00  7.00000000E+00  1.00000000E+00
  6.00000000E+00  1.00000000E+00  1.00000000E+00  1.00000000E+00
Current cartesian coordinates              R   N=          57
  7.02488014E+00  1.33157053E+00  1.79753029E-05  6.66232911E+00  3.37081799E+00
  2.04584421E-04  8.10566338E+00  8.03565275E-01  1.68385248E+00  8.10550933E+00
  8.03867169E-01 -1.68401096E+00  4.54586234E+00 -2.99540245E-01  3.73027168E-06
  4.76938612E+00 -2.64716262E+00  5.81598338E-08  2.14650371E+00  7.51667604E-01
 -1.31550420E-05  1.82773786E+00  2.63766400E+00 -8.61451592E-06 -9.65575417E-02
 -9.26991299E-01 -1.65439067E-05  6.99359803E-04 -2.16780710E+00  1.66580341E+00
  6.97576222E-04 -2.16780371E+00 -1.66583914E+00 -2.70365385E+00  4.72348224E-01
 -8.85824405E-06 -2.82920705E+00  2.81479882E+00 -7.83687832E-06 -4.79508891E+00
 -1.09581905E+00  2.72239795E-07 -4.45338709E+00 -2.97680392E+00 -1.70978047E-07
 -7.54740310E+00 -3.64572529E-01  1.77021977E-05 -8.46380527E+00 -1.10677228E+00
  1.70095737E+00 -7.64170880E+00  1.70116469E+00 -3.29111892E-06 -8.46383954E+00
 -1.10680968E+00 -1.70088730E+00
Number of symbols in /Mol/                 I                0
Redundant internal dimensions              I   N=           4
          81          19          30          32
Redundant internal coordinate indices      I   N=         324
           1           2           0           0           1           3
           0           0           1           4           0           0
           1           5           0           0           1          16
           0           0           5           6           0           0
           5           7           0           0           7           8
           0           0           7           9           0           0
           9          10           0           0           9          11
           0           0           9          12           0           0
          12          13           0           0          12          14
           0           0          14          15           0           0
          14          16           0           0          16          17
           0           0          16          18           0           0
          16          19           0           0           2           1
           3           0           2           1           4           0
           2           1           5           0           3           1
           4           0           3           1           5           0
           4           1           5           0           1           5
           6           0           1           5           7           0
           6           5           7           0           5           7
           8           0           5           7           9           0
           8           7           9           0           7           9
          10           0           7           9          11           0
           7           9          12           0          10           9
          11           0          10           9          12           0
          11           9          12           0           9          12
          13           0           9          12          14           0
          13          12          14           0          12          14
          15           0          12          14          16           0
          15          14          16           0          14          16
          17           0          14          16          18           0
          14          16          19           0          17          16
          18           0          17          16          19           0
          18          16          19           0           2           1
           5           6           2           1           5           7
           3           1           5           6           3           1
           5           7           4           1           5           6
           4           1           5           7           1           5
           7           8           1           5           7           9
           6           5           7           8           6           5
           7           9           5           7           9          10
           5           7           9          11           5           7
           9          12           8           7           9          10
           8           7           9          11           8           7
           9          12           7           9          12          13
           7           9          12          14          10           9
          12          13          10           9          12          14
          11           9          12          13          11           9
          12          14           9          12          14          15
           9          12          14          16          13          12
          14          15          13          12          14          16
          12          14          16          17          12          14
          16          18          12          14          16          19
          15          14          16          17          15          14
          16          18          15          14          16          19
Redundant internal coordinates             R   N=          81
  2.07122511E+00  2.06934304E+00  2.06934380E+00  2.96749922E+00  1.46706626E+01
  2.35823954E+00  2.61953427E+00  1.91274516E+00  2.80164586E+00  2.07943235E+00
  2.07943235E+00  2.95890221E+00  2.34581295E+00  2.61404843E+00  1.91176992E+00
  2.84779825E+00  2.06974616E+00  2.06788874E+00  2.06974625E+00  1.92044178E+00
  1.92043096E+00  1.97680331E+00  1.90115642E+00  1.87136691E+00  1.87137747E+00
  2.05782489E+00  2.14670641E+00  2.07865401E+00  2.15116216E+00  2.08619908E+00
  2.04582407E+00  1.89661298E+00  1.89661471E+00  2.00652229E+00  1.85824235E+00
  1.90012365E+00  1.90012643E+00  2.11695197E+00  2.00560892E+00  2.16062442E+00
  2.03447080E+00  2.23853175E+00  2.01018276E+00  1.91329514E+00  1.87610194E+00
  1.91329650E+00  1.91562751E+00  1.92913430E+00  1.91562814E+00 -3.14149587E+00
  1.00573427E-04 -1.01959403E+00  2.12200241E+00  1.01979385E+00 -2.12179501E+00
 -5.52714581E-06 -3.14158885E+00  3.14159096E+00  7.63076229E-06  1.00764447E+00
 -1.00765982E+00  3.14158250E+00 -2.13393942E+00  2.13394161E+00 -1.38107319E-06
  3.61281718E-06 -3.14158747E+00  2.13204807E+00 -1.00954301E+00 -2.13204524E+00
  1.00954899E+00 -7.64329350E-07  3.14158886E+00 -3.14159180E+00 -2.17857830E-06
 -2.08132939E+00  1.29515009E-05  2.08135682E+00  1.06026026E+00 -3.14158270E+00
 -1.06023883E+00
ZRed-IntVec                                I   N=          81
           0           0           0           0          -1           0
           0           0           0           0           0           0
           0           0           0           0           0           0
           0           0           0           0           0           0
           0           0           0           0           0           0
           0           0           0           0           0           0
           0           0           0           0           0           0
           0           0           0           0           0           0
           0           0           0           0           0           0
           0           0           0           0           0           0
           0           0           0           0           0           0
           0           0           0           0           0           0
           0           0           0           0           0           0
           0           0           0
ZRed-FPVec                                 R   N=          81
  0.00000000E+00  0.00000000E+00  0.00000000E+00  0.00000000E+00  0.00000000E+00
  0.00000000E+00  0.00000000E+00  0.00000000E+00  0.00000000E+00  0.00000000E+00
  0.00000000E+00  0.00000000E+00  0.00000000E+00  0.00000000E+00  0.00000000E+00
  0.00000000E+00  0.00000000E+00  0.00000000E+00  0.00000000E+00  0.00000000E+00
  0.00000000E+00  0.00000000E+00  0.00000000E+00  0.00000000E+00  0.00000000E+00
  0.00000000E+00  0.00000000E+00  0.00000000E+00  0.00000000E+00  0.00000000E+00
  0.00000000E+00  0.00000000E+00  0.00000000E+00  0.00000000E+00  0.00000000E+00
  0.00000000E+00  0.00000000E+00  0.00000000E+00  0.00000000E+00  0.00000000E+00
  0.00000000E+00  0.00000000E+00  0.00000000E+00  0.00000000E+00  0.00000000E+00
  0.00000000E+00  0.00000000E+00  0.00000000E+00  0.00000000E+00  0.00000000E+00
  0.00000000E+00  0.00000000E+00  0.00000000E+00  0.00000000E+00  0.00000000E+00
  0.00000000E+00  0.00000000E+00  0.00000000E+00  0.00000000E+00  0.00000000E+00
  0.00000000E+00  0.00000000E+00  0.00000000E+00  0.00000000E+00  0.00000000E+00
  0.00000000E+00  0.00000000E+00  0.00000000E+00  0.00000000E+00  0.00000000E+00
  0.00000000E+00  0.00000000E+00  0.00000000E+00  0.00000000E+00  0.00000000E+00
  0.00000000E+00  0.00000000E+00  0.00000000E+00  0.00000000E+00  0.00000000E+00
  0.00000000E+00
ZRed-Constraint1                           R   N=          81
  2.07122511E+00  2.06934304E+00  2.06934380E+00  2.96749922E+00  1.46706626E+01
  2.35823954E+00  2.61953427E+00  1.91274516E+00  2.80164586E+00  2.07943235E+00
  2.07943235E+00  2.95890221E+00  2.34581295E+00  2.61404843E+00  1.91176992E+00
  2.84779825E+00  2.06974616E+00  2.06788874E+00  2.06974625E+00  1.92044178E+00
  1.92043096E+00  1.97680331E+00  1.90115642E+00  1.87136691E+00  1.87137747E+00
  2.05782489E+00  2.14670641E+00  2.07865401E+00  2.15116216E+00  2.08619908E+00
  2.04582407E+00  1.89661298E+00  1.89661471E+00  2.00652229E+00  1.85824235E+00
  1.90012365E+00  1.90012643E+00  2.11695197E+00  2.00560892E+00  2.16062442E+00
  2.03447080E+00  2.23853175E+00  2.01018276E+00  1.91329514E+00  1.87610194E+00
  1.91329650E+00  1.91562751E+00  1.92913430E+00  1.91562814E+00 -3.14149587E+00
  1.00573427E-04 -1.01959403E+00  2.12200241E+00  1.01979385E+00 -2.12179501E+00
 -5.52716590E-06 -3.14158885E+00  3.14159096E+00  7.63076229E-06  1.00764447E+00
 -1.00765982E+00  3.14158250E+00 -2.13393942E+00  2.13394161E+00 -1.38107319E-06
  3.61284791E-06 -3.14158747E+00  2.13204807E+00 -1.00954301E+00 -2.13204524E+00
  1.00954899E+00 -7.64038786E-07  3.14158886E+00 -3.14159180E+00 -2.17842542E-06
 -2.08132939E+00  1.29514924E-05  2.08135682E+00  1.06026026E+00 -3.14158270E+00
 -1.06023883E+00
ZRed-Constraint2                           R   N=          81
  2.10498441E+00  1.97925511E+00  1.97913804E+00  3.07868049E+00  1.46706627E+01
  2.35907753E+00  2.59454091E+00  1.91305278E+00  2.76810744E+00  2.08018361E+00
  2.08018679E+00  2.92245506E+00  2.34935874E+00  2.59017591E+00  1.91040332E+00
  2.97259648E+00  1.98226112E+00  2.10108220E+00  1.98224553E+00  1.95364334E+00
  1.95374966E+00  1.85201565E+00  2.02549205E+00  1.83052895E+00  1.83054637E+00
  2.05861042E+00  2.12983695E+00  2.09473794E+00  2.15511266E+00  2.08814218E+00
  2.03993046E+00  1.90946033E+00  1.90948413E+00  1.95981012E+00  1.85979522E+00
  1.91131237E+00  1.91128410E+00  2.11968384E+00  2.00175807E+00  2.16174339E+00
  2.05098627E+00  2.22442667E+00  2.00777237E+00  1.86212453E+00  1.76232468E+00
  1.86212803E+00  1.94768491E+00  2.05356116E+00  1.94765534E+00  3.14114106E+00
 -4.59894244E-04 -1.07162306E+00  2.06996129E+00  1.07059060E+00 -2.07101035E+00
 -7.36691769E-06 -3.14158213E+00  3.14157682E+00  2.05776350E-06  1.01546174E+00
 -1.01587554E+00  3.14139537E+00 -2.12611418E+00  2.12573384E+00 -1.80550879E-04
  7.74343612E-05 -3.14150727E+00  2.12495486E+00 -1.01662984E+00 -2.12481044E+00
  1.01679016E+00 -2.16763653E-05 -3.14156111E+00  3.14157914E+00  3.97064585E-05
 -2.03715326E+00 -1.29172821E-04  2.03686346E+00  1.10449149E+00  3.14151558E+00
 -1.10467710E+00
Force Field                                I                0
Atom Types                                 C   N=          19
                                                            
                                                            
                                                            
                                                
Int Atom Types                             I   N=          19
           0           0           0           0           0           0
           0           0           0           0           0           0
           0           0           0           0           0           0
           0
MM charges                                 R   N=          19
  0.00000000E+00  0.00000000E+00  0.00000000E+00  0.00000000E+00  0.00000000E+00
  0.00000000E+00  0.00000000E+00  0.00000000E+00  0.00000000E+00  0.00000000E+00
  0.00000000E+00  0.00000000E+00  0.00000000E+00  0.00000000E+00  0.00000000E+00
  0.00000000E+00  0.00000000E+00  0.00000000E+00  0.00000000E+00
Integer atomic weights                     I   N=          19
          12           1           1           1          12          16
          14           1          12           1           1          12
          16          14           1          12           1           1
           1
Real atomic weights                        R   N=          19
  1.20000000E+01  1.00782504E+00  1.00782504E+00  1.00782504E+00  1.20000000E+01
  1.59949146E+01  1.40030740E+01  1.00782504E+00  1.20000000E+01  1.00782504E+00
  1.00782504E+00  1.20000000E+01  1.59949146E+01  1.40030740E+01  1.00782504E+00
  1.20000000E+01  1.00782504E+00  1.00782504E+00  1.00782504E+00
Atom fragment info                         I   N=          19
           0           0           0           0           0           0
           0           0           0           0           0           0
           0           0           0           0           0           0
           0
Atom residue num                           I   N=          19
           0           0           0           0           0           0
           0           0           0           0           0           0
           0           0           0           0           0           0
           0
Nuclear spins                              I   N=          19
           0           1           1           1           0           0
           2           1           0           1           1           0
           0           2           1           0           1           1
           1
Nuclear ZEff                               R   N=          19
 -3.60000000E+00 -1.00000000E+00 -1.00000000E+00 -1.00000000E+00 -3.60000000E+00
 -5.60000000E+00 -4.55000000E+00 -1.00000000E+00 -3.60000000E+00 -1.00000000E+00
 -1.00000000E+00 -3.60000000E+00 -5.60000000E+00 -4.55000000E+00 -1.00000000E+00
 -3.60000000E+00 -1.00000000E+00 -1.00000000E+00 -1.00000000E+00
Nuclear ZNuc                               R   N=          19
  6.00000000E+00  1.00000000E+00  1.00000000E+00  1.00000000E+00  6.00000000E+00
  8.00000000E+00  7.00000000E+00  1.00000000E+00  6.00000000E+00  1.00000000E+00
  1.00000000E+00  6.00000000E+00  8.00000000E+00  7.00000000E+00  1.00000000E+00
  6.00000000E+00  1.00000000E+00  1.00000000E+00  1.00000000E+00
Nuclear QMom                               R   N=          19
  0.00000000E+00  0.00000000E+00  0.00000000E+00  0.00000000E+00  0.00000000E+00
  0.00000000E+00  2.04400000E+00  0.00000000E+00  0.00000000E+00  0.00000000E+00
  0.00000000E+00  0.00000000E+00  0.00000000E+00  2.04400000E+00  0.00000000E+00
  0.00000000E+00  0.00000000E+00  0.00000000E+00  0.00000000E+00
Nuclear GFac                               R   N=          19
  0.00000000E+00  2.79284600E+00  2.79284600E+00  2.79284600E+00  0.00000000E+00
  0.00000000E+00  4.03761000E-01  2.79284600E+00  0.00000000E+00  2.79284600E+00
  2.79284600E+00  0.00000000E+00  0.00000000E+00  4.03761000E-01  2.79284600E+00
  0.00000000E+00  2.79284600E+00  2.79284600E+00  2.79284600E+00
MicOpt                                     I   N=          19
          -1          -1          -1          -1          -1          -1
          -1          -1          -1          -1          -1          -1
          -1          -1          -1          -1          -1          -1
          -1
Number of residues                         I                0
Number of secondary structures             I                0
Number of contracted shells                I               56
Number of primitive shells                 I              139
Pure/Cartesian d shells                    I                1
Pure/Cartesian f shells                    I                0
Highest angular momentum                   I                1
Largest degree of contraction              I                6
Shell types                                I   N=          56
           0          -1          -1          -1           0           0
           0           0           0           0           0          -1
          -1          -1           0          -1          -1          -1
           0          -1          -1          -1           0           0
           0          -1          -1          -1           0           0
           0           0           0          -1          -1          -1
           0          -1          -1          -1           0          -1
          -1          -1           0           0           0          -1
          -1          -1           0           0           0           0
           0           0
Number of primitives per shell             I   N=          56
           6           3           1           1           3           1
           3           1           3           1           6           3
           1           1           6           3           1           1
           6           3           1           1           3           1
           6           3           1           1           3           1
           3           1           6           3           1           1
           6           3           1           1           6           3
           1           1           3           1           6           3
           1           1           3           1           3           1
           3           1
Shell to atom map                          I   N=          56
           1           1           1           1           2           2
           3           3           4           4           5           5
           5           5           6           6           6           6
           7           7           7           7           8           8
           9           9           9           9          10          10
          11          11          12          12          12          12
          13          13          13          13          14          14
          14          14          15          15          16          16
          16          16          17          17          18          18
          19          19
Primitive exponents                        R   N=         139
  3.04752488E+03  4.57369518E+02  1.03948685E+02  2.92101553E+01  9.28666296E+00
  3.16392696E+00  7.86827235E+00  1.88128854E+00  5.44249258E-01  1.68714478E-01
  4.38000000E-02  1.87311370E+01  2.82539436E+00  6.40121692E-01  1.61277759E-01
  1.87311370E+01  2.82539436E+00  6.40121692E-01  1.61277759E-01  1.87311370E+01
  2.82539436E+00  6.40121692E-01  1.61277759E-01  3.04752488E+03  4.57369518E+02
  1.03948685E+02  2.92101553E+01  9.28666296E+00  3.16392696E+00  7.86827235E+00
  1.88128854E+00  5.44249258E-01  1.68714478E-01  4.38000000E-02  5.48467166E+03
  8.25234946E+02  1.88046958E+02  5.29645000E+01  1.68975704E+01  5.79963534E+00
  1.55396162E+01  3.59993359E+00  1.01376175E+00  2.70005823E-01  8.45000000E-02
  4.17351146E+03  6.27457911E+02  1.42902093E+02  4.02343293E+01  1.28202129E+01
  4.39043701E+00  1.16263619E+01  2.71627981E+00  7.72218397E-01  2.12031498E-01
  6.39000000E-02  1.87311370E+01  2.82539436E+00  6.40121692E-01  1.61277759E-01
  3.04752488E+03  4.57369518E+02  1.03948685E+02  2.92101553E+01  9.28666296E+00
  3.16392696E+00  7.86827235E+00  1.88128854E+00  5.44249258E-01  1.68714478E-01
  4.38000000E-02  1.87311370E+01  2.82539436E+00  6.40121692E-01  1.61277759E-01
  1.87311370E+01  2.82539436E+00  6.40121692E-01  1.61277759E-01  3.04752488E+03
  4.57369518E+02  1.03948685E+02  2.92101553E+01  9.28666296E+00  3.16392696E+00
  7.86827235E+00  1.88128854E+00  5.44249258E-01  1.68714478E-01  4.38000000E-02
  5.48467166E+03  8.25234946E+02  1.88046958E+02  5.29645000E+01  1.68975704E+01
  5.79963534E+00  1.55396162E+01  3.59993359E+00  1.01376175E+00  2.70005823E-01
  8.45000000E-02  4.17351146E+03  6.27457911E+02  1.42902093E+02  4.02343293E+01
  1.28202129E+01  4.39043701E+00  1.16263619E+01  2.71627981E+00  7.72218397E-01
  2.12031498E-01  6.39000000E-02  1.87311370E+01  2.82539436E+00  6.40121692E-01
  1.61277759E-01  3.04752488E+03  4.57369518E+02  1.03948685E+02  2.92101553E+01
  9.28666296E+00  3.16392696E+00  7.86827235E+00  1.88128854E+00  5.44249258E-01
  1.68714478E-01  4.38000000E-02  1.87311370E+01  2.82539436E+00  6.40121692E-01
  1.61277759E-01  1.87311370E+01  2.82539436E+00  6.40121692E-01  1.61277759E-01
  1.87311370E+01  2.82539436E+00  6.40121692E-01  1.61277759E-01
Contraction coefficients                   R   N=         139
  1.83473713E-03  1.40373228E-02  6.88426223E-02  2.32184443E-01  4.67941348E-01
  3.62311985E-01 -1.19332420E-01 -1.60854152E-01  1.14345644E+00  1.00000000E+00
  1.00000000E+00  3.34946043E-02  2.34726953E-01  8.13757326E-01  1.00000000E+00
  3.34946043E-02  2.34726953E-01  8.13757326E-01  1.00000000E+00  3.34946043E-02
  2.34726953E-01  8.13757326E-01  1.00000000E+00  1.83473713E-03  1.40373228E-02
  6.88426223E-02  2.32184443E-01  4.67941348E-01  3.62311985E-01 -1.19332420E-01
 -1.60854152E-01  1.14345644E+00  1.00000000E+00  1.00000000E+00  1.83107443E-03
  1.39501722E-02  6.84450781E-02  2.32714336E-01  4.70192898E-01  3.58520853E-01
 -1.10777550E-01 -1.48026263E-01  1.13076702E+00  1.00000000E+00  1.00000000E+00
  1.83477216E-03  1.39946270E-02  6.85865518E-02  2.32240873E-01  4.69069948E-01
  3.60455199E-01 -1.14961182E-01 -1.69117479E-01  1.14585195E+00  1.00000000E+00
  1.00000000E+00  3.34946043E-02  2.34726953E-01  8.13757326E-01  1.00000000E+00
  1.83473713E-03  1.40373228E-02  6.88426223E-02  2.32184443E-01  4.67941348E-01
  3.62311985E-01 -1.19332420E-01 -1.60854152E-01  1.14345644E+00  1.00000000E+00
  1.00000000E+00  3.34946043E-02  2.34726953E-01  8.13757326E-01  1.00000000E+00
  3.34946043E-02  2.34726953E-01  8.13757326E-01  1.00000000E+00  1.83473713E-03
  1.40373228E-02  6.88426223E-02  2.32184443E-01  4.67941348E-01  3.62311985E-01
 -1.19332420E-01 -1.60854152E-01  1.14345644E+00  1.00000000E+00  1.00000000E+00
  1.83107443E-03  1.39501722E-02  6.84450781E-02  2.32714336E-01  4.70192898E-01
  3.58520853E-01 -1.10777550E-01 -1.48026263E-01  1.13076702E+00  1.00000000E+00
  1.00000000E+00  1.83477216E-03  1.39946270E-02  6.85865518E-02  2.32240873E-01
  4.69069948E-01  3.60455199E-01 -1.14961182E-01 -1.69117479E-01  1.14585195E+00
  1.00000000E+00  1.00000000E+00  3.34946043E-02  2.34726953E-01  8.13757326E-01
  1.00000000E+00  1.83473713E-03  1.40373228E-02  6.88426223E-02  2.32184443E-01
  4.67941348E-01  3.62311985E-01 -1.19332420E-01 -1.60854152E-01  1.14345644E+00
  1.00000000E+00  1.00000000E+00  3.34946043E-02  2.34726953E-01  8.13757326E-01
  1.00000000E+00  3.34946043E-02  2.34726953E-01  8.13757326E-01  1.00000000E+00
  3.34946043E-02  2.34726953E-01  8.13757326E-01  1.00000000E+00
P(S=P) Contraction coefficients            R   N=         139
  0.00000000E+00  0.00000000E+00  0.00000000E+00  0.00000000E+00  0.00000000E+00
  0.00000000E+00  6.89990666E-02  3.16423961E-01  7.44308291E-01  1.00000000E+00
  1.00000000E+00  0.00000000E+00  0.00000000E+00  0.00000000E+00  0.00000000E+00
  0.00000000E+00  0.00000000E+00  0.00000000E+00  0.00000000E+00  0.00000000E+00
  0.00000000E+00  0.00000000E+00  0.00000000E+00  0.00000000E+00  0.00000000E+00
  0.00000000E+00  0.00000000E+00  0.00000000E+00  0.00000000E+00  6.89990666E-02
  3.16423961E-01  7.44308291E-01  1.00000000E+00  1.00000000E+00  0.00000000E+00
  0.00000000E+00  0.00000000E+00  0.00000000E+00  0.00000000E+00  0.00000000E+00
  7.08742682E-02  3.39752839E-01  7.27158577E-01  1.00000000E+00  1.00000000E+00
  0.00000000E+00  0.00000000E+00  0.00000000E+00  0.00000000E+00  0.00000000E+00
  0.00000000E+00  6.75797439E-02  3.23907296E-01  7.40895140E-01  1.00000000E+00
  1.00000000E+00  0.00000000E+00  0.00000000E+00  0.00000000E+00  0.00000000E+00
  0.00000000E+00  0.00000000E+00  0.00000000E+00  0.00000000E+00  0.00000000E+00
  0.00000000E+00  6.89990666E-02  3.16423961E-01  7.44308291E-01  1.00000000E+00
  1.00000000E+00  0.00000000E+00  0.00000000E+00  0.00000000E+00  0.00000000E+00
  0.00000000E+00  0.00000000E+00  0.00000000E+00  0.00000000E+00  0.00000000E+00
  0.00000000E+00  0.00000000E+00  0.00000000E+00  0.00000000E+00  0.00000000E+00
  6.89990666E-02  3.16423961E-01  7.44308291E-01  1.00000000E+00  1.00000000E+00
  0.00000000E+00  0.00000000E+00  0.00000000E+00  0.00000000E+00  0.00000000E+00
  0.00000000E+00  7.08742682E-02  3.39752839E-01  7.27158577E-01  1.00000000E+00
  1.00000000E+00  0.00000000E+00  0.00000000E+00  0.00000000E+00  0.00000000E+00
  0.00000000E+00  0.00000000E+00  6.75797439E-02  3.23907296E-01  7.40895140E-01
  1.00000000E+00  1.00000000E+00  0.00000000E+00  0.00000000E+00  0.00000000E+00
  0.00000000E+00  0.00000000E+00  0.00000000E+00  0.00000000E+00  0.00000000E+00
  0.00000000E+00  0.00000000E+00  6.89990666E-02  3.16423961E-01  7.44308291E-01
  1.00000000E+00  1.00000000E+00  0.00000000E+00  0.00000000E+00  0.00000000E+00
  0.00000000E+00  0.00000000E+00  0.00000000E+00  0.00000000E+00  0.00000000E+00
  0.00000000E+00  0.00000000E+00  0.00000000E+00  0.00000000E+00
Coordinates of each shell                  R   N=         168
  7.02488014E+00  1.33157053E+00  1.79753029E-05  7.02488014E+00  1.33157053E+00
  1.79753029E-05  7.02488014E+00  1.33157053E+00  1.79753029E-05  7.02488014E+00
  1.33157053E+00  1.79753029E-05  6.66232911E+00  3.37081799E+00  2.04584421E-04
  6.66232911E+00  3.37081799E+00  2.04584421E-04  8.10566338E+00  8.03565275E-01
  1.68385248E+00  8.10566338E+00  8.03565275E-01  1.68385248E+00  8.10550933E+00
  8.03867169E-01 -1.68401096E+00  8.10550933E+00  8.03867169E-01 -1.68401096E+00
  4.54586234E+00 -2.99540245E-01  3.73027168E-06  4.54586234E+00 -2.99540245E-01
  3.73027168E-06  4.54586234E+00 -2.99540245E-01  3.73027168E-06  4.54586234E+00
 -2.99540245E-01  3.73027168E-06  4.76938612E+00 -2.64716262E+00  5.81598338E-08
  4.76938612E+00 -2.64716262E+00  5.81598338E-08  4.76938612E+00 -2.64716262E+00
  5.81598338E-08  4.76938612E+00 -2.64716262E+00  5.81598338E-08  2.14650371E+00
  7.51667604E-01 -1.31550420E-05  2.14650371E+00  7.51667604E-01 -1.31550420E-05
  2.14650371E+00  7.51667604E-01 -1.31550420E-05  2.14650371E+00  7.51667604E-01
 -1.31550420E-05  1.82773786E+00  2.63766400E+00 -8.61451592E-06  1.82773786E+00
  2.63766400E+00 -8.61451592E-06 -9.65575417E-02 -9.26991299E-01 -1.65439067E-05
 -9.65575417E-02 -9.26991299E-01 -1.65439067E-05 -9.65575417E-02 -9.26991299E-01
 -1.65439067E-05 -9.65575417E-02 -9.26991299E-01 -1.65439067E-05  6.99359803E-04
 -2.16780710E+00  1.66580341E+00  6.99359803E-04 -2.16780710E+00  1.66580341E+00
  6.97576222E-04 -2.16780371E+00 -1.66583914E+00  6.97576222E-04 -2.16780371E+00
 -1.66583914E+00 -2.70365385E+00  4.72348224E-01 -8.85824405E-06 -2.70365385E+00
  4.72348224E-01 -8.85824405E-06 -2.70365385E+00  4.72348224E-01 -8.85824405E-06
 -2.70365385E+00  4.72348224E-01 -8.85824405E-06 -2.82920705E+00  2.81479882E+00
 -7.83687831E-06 -2.82920705E+00  2.81479882E+00 -7.83687831E-06 -2.82920705E+00
  2.81479882E+00 -7.83687831E-06 -2.82920705E+00  2.81479882E+00 -7.83687831E-06
 -4.79508891E+00 -1.09581905E+00  2.72239795E-07 -4.79508891E+00 -1.09581905E+00
  2.72239795E-07 -4.79508891E+00 -1.09581905E+00  2.72239795E-07 -4.79508891E+00
 -1.09581905E+00  2.72239795E-07 -4.45338709E+00 -2.97680392E+00 -1.70978047E-07
 -4.45338709E+00 -2.97680392E+00 -1.70978047E-07 -7.54740310E+00 -3.64572529E-01
  1.77021977E-05 -7.54740310E+00 -3.64572529E-01  1.77021977E-05 -7.54740310E+00