Gaussian input prepared by ASE                                          
FOpt      RBMK                                                        6-31+G              
Number of atoms                            I               19
Info1-9                                    I   N=           9
          29          29           0           0           0         110
           2          18        -402
Full Title                                 C   N=           3
Gaussian input prepared by ASE      
Route                                      C   N=           3
#P bmk/6-31+g opt(modredun,calcfc)  
Charge                                     I                0
Multiplicity                               I                1
Number of electrons                        I               70
Number of alpha electrons                  I               35
Number of beta electrons                   I               35
Number of basis functions                  I              137
Number of independent functions            I              137
Number of point charges in /Mol/           I                0
Number of translation vectors              I                0
Atomic numbers                             I   N=          19
           6           1           1           1           6           8
           7           1           6           1           1           6
           8           7           1           6           1           1
           1
Nuclear charges                            R   N=          19
  6.00000000E+00  1.00000000E+00  1.00000000E+00  1.00000000E+00  6.00000000E+00
  8.00000000E+00  7.00000000E+00  1.00000000E+00  6.00000000E+00  1.00000000E+00
  1.00000000E+00  6.00000000E+00  8.00000000E+00  7.00000000E+00  1.00000000E+00
  6.00000000E+00  1.00000000E+00  1.00000000E+00  1.00000000E+00
Current cartesian coordinates              R   N=          57
 -6.31836055E+00  1.79394723E+00  3.85960409E-01 -5.55851421E+00  3.66943659E+00
 -5.13091027E-02 -7.94345062E+00  1.40903116E+00 -8.39310821E-01 -6.99234325E+00
  1.77801231E+00  2.34791589E+00 -4.38434826E+00 -2.94444844E-01  5.29080627E-02
 -4.95399826E+00 -2.57816285E+00  1.87324431E-01 -1.97465930E+00  4.79007623E-01
 -3.56514256E-01 -1.48963595E+00  2.32823589E+00 -4.25197829E-01  9.75063183E-02
 -1.29251741E+00 -5.33472895E-01  1.03244823E-01 -2.27038135E+00 -2.37268526E+00
 -1.00712213E-01 -2.74923343E+00  9.34479543E-01  2.55144755E+00  1.96380459E-01
 -2.15198896E-01  2.57754738E+00  2.55111657E+00 -2.98263553E-01  4.67377626E+00
 -1.17993483E+00  1.47019941E-01  4.57632738E+00 -3.08126967E+00  2.40428111E-01
  7.10833546E+00  7.22773401E-02  4.58931254E-01  8.55114444E+00 -1.35211364E+00
  8.60847972E-01  7.62416380E+00  1.10997422E+00 -1.25989518E+00  7.02008096E+00
  1.42731201E+00  2.02393225E+00
Number of symbols in /Mol/                 I                0
Redundant internal dimensions              I   N=           4
          81          19          30          32
Redundant internal coordinate indices      I   N=         324
           1           2           0           0           1           3
           0           0           1           4           0           0
           1           5           0           0           1          16
           0           0           5           6           0           0
           5           7           0           0           7           8
           0           0           7           9           0           0
           9          10           0           0           9          11
           0           0           9          12           0           0
          12          13           0           0          12          14
           0           0          14          15           0           0
          14          16           0           0          16          17
           0           0          16          18           0           0
          16          19           0           0           2           1
           3           0           2           1           4           0
           2           1           5           0           3           1
           4           0           3           1           5           0
           4           1           5           0           1           5
           6           0           1           5           7           0
           6           5           7           0           5           7
           8           0           5           7           9           0
           8           7           9           0           7           9
          10           0           7           9          11           0
           7           9          12           0          10           9
          11           0          10           9          12           0
          11           9          12           0           9          12
          13           0           9          12          14           0
          13          12          14           0          12          14
          15           0          12          14          16           0
          15          14          16           0          14          16
          17           0          14          16          18           0
          14          16          19           0          17          16
          18           0          17          16          19           0
          18          16          19           0           2           1
           5           6           2           1           5           7
           3           1           5           6           3           1
           5           7           4           1           5           6
           4           1           5           7           1           5
           7           8           1           5           7           9
           6           5           7           8           6           5
           7           9           5           7           9          10
           5           7           9          11           5           7
           9          12           8           7           9          10
           8           7           9          11           8           7
           9          12           7           9          12          13
           7           9          12          14          10           9
          12          13          10           9          12          14
          11           9          12          13          11           9
          12          14           9          12          14          15
           9          12          14          16          13          12
          14          15          13          12          14          16
          12          14          16          17          12          14
          16          18          12          14          16          19
          15          14          16          17          15          14
          16          18          15          14          16          19
Redundant internal coordinates             R   N=          81
  2.07027327E+00  2.07132028E+00  2.07455439E+00  2.86578242E+00  1.35368252E+01
  2.35752769E+00  2.56368021E+00  1.91301079E+00  2.73193808E+00  2.08301535E+00
  2.07754579E+00  2.88789590E+00  2.35634528E+00  2.55533275E+00  1.90612054E+00
  2.75543145E+00  2.06691182E+00  2.07298287E+00  2.07198840E+00  1.90854427E+00
  1.90281067E+00  1.96918116E+00  1.87875755E+00  1.90213303E+00  1.90028765E+00
  2.13675437E+00  2.01864874E+00  2.12759658E+00  2.13611038E+00  2.12662330E+00
  2.01772221E+00  1.94302748E+00  1.91403487E+00  1.87870150E+00  1.87023094E+00
  1.91452447E+00  1.94410749E+00  2.11851360E+00  2.03049862E+00  2.13416193E+00
  2.09640321E+00  2.10030154E+00  2.08625597E+00  1.90243484E+00  1.93209351E+00
  1.92310789E+00  1.90975337E+00  1.91085475E+00  1.88546612E+00 -3.00065714E+00
  1.61287561E-01 -8.77155915E-01  2.28478879E+00  1.16760238E+00 -1.95363823E+00
  6.67794725E-03  3.06543253E+00 -3.11467955E+00 -5.59249666E-02  1.32839959E+00
 -7.38288060E-01 -2.85600512E+00 -1.89075110E+00  2.32574656E+00  2.08029502E-01
 -2.13236817E-01  2.93332223E+00  1.90345699E+00 -1.23316927E+00 -2.31206004E+00
  8.34499005E-01 -2.75309846E-02  3.13694111E+00  3.11907654E+00  3.63321719E-04
  3.07182564E+00 -1.10994846E+00  9.74596104E-01 -4.70203044E-02  2.05439090E+00
 -2.14424984E+00
ZRed-IntVec                                I   N=          81
           0           0           0           0          -1           0
           0           0           0           0           0           0
           0           0           0           0           0           0
           0           0           0           0           0           0
           0           0           0           0           0           0
           0           0           0           0           0           0
           0           0           0           0           0           0
           0           0           0           0           0           0
           0           0           0           0           0           0
           0           0           0           0           0           0
           0           0           0           0           0           0
           0           0           0           0           0           0
           0           0           0           0           0           0
           0           0           0
ZRed-FPVec                                 R   N=          81
  0.00000000E+00  0.00000000E+00  0.00000000E+00  0.00000000E+00  0.00000000E+00
  0.00000000E+00  0.00000000E+00  0.00000000E+00  0.00000000E+00  0.00000000E+00
  0.00000000E+00  0.00000000E+00  0.00000000E+00  0.00000000E+00  0.00000000E+00
  0.00000000E+00  0.00000000E+00  0.00000000E+00  0.00000000E+00  0.00000000E+00
  0.00000000E+00  0.00000000E+00  0.00000000E+00  0.00000000E+00  0.00000000E+00
  0.00000000E+00  0.00000000E+00  0.00000000E+00  0.00000000E+00  0.00000000E+00
  0.00000000E+00  0.00000000E+00  0.00000000E+00  0.00000000E+00  0.00000000E+00
  0.00000000E+00  0.00000000E+00  0.00000000E+00  0.00000000E+00  0.00000000E+00
  0.00000000E+00  0.00000000E+00  0.00000000E+00  0.00000000E+00  0.00000000E+00
  0.00000000E+00  0.00000000E+00  0.00000000E+00  0.00000000E+00  0.00000000E+00
  0.00000000E+00  0.00000000E+00  0.00000000E+00  0.00000000E+00  0.00000000E+00
  0.00000000E+00  0.00000000E+00  0.00000000E+00  0.00000000E+00  0.00000000E+00
  0.00000000E+00  0.00000000E+00  0.00000000E+00  0.00000000E+00  0.00000000E+00
  0.00000000E+00  0.00000000E+00  0.00000000E+00  0.00000000E+00  0.00000000E+00
  0.00000000E+00  0.00000000E+00  0.00000000E+00  0.00000000E+00  0.00000000E+00
  0.00000000E+00  0.00000000E+00  0.00000000E+00  0.00000000E+00  0.00000000E+00
  0.00000000E+00
ZRed-Constraint1                           R   N=          81
  2.10473685E+00  1.90994034E+00  2.07056017E+00  3.00938035E+00  1.35368251E+01
  2.35617545E+00  2.56980844E+00  1.91302373E+00  2.73771900E+00  2.08263796E+00
  2.07381304E+00  2.88922873E+00  2.35655037E+00  2.55509473E+00  1.90572655E+00
  2.90984236E+00  1.92811423E+00  2.02918035E+00  2.11930316E+00  2.00124723E+00
  1.88187694E+00  1.86070523E+00  1.99771365E+00  1.89496497E+00  1.81328519E+00
  2.09801328E+00  2.05288776E+00  2.13227798E+00  2.12353475E+00  2.12995284E+00
  2.01419641E+00  1.94831699E+00  1.89356440E+00  1.87831316E+00  1.88029490E+00
  1.90404705E+00  1.96028202E+00  2.10936700E+00  2.03762215E+00  2.13618012E+00
  2.09448138E+00  2.13570945E+00  2.05232746E+00  1.87764428E+00  1.85193328E+00
  1.81120851E+00  2.04607060E+00  1.97619517E+00  1.88215223E+00 -2.98491528E+00
  1.60403696E-01 -8.20193671E-01  2.32512530E+00  1.31286340E+00 -1.82500293E+00
  7.24324750E-02  3.01705606E+00 -3.06535575E+00 -1.20732164E-01  1.69867352E+00
 -3.70639966E-01 -2.49570176E+00 -1.62836736E+00  2.58550446E+00  4.60442663E-01
 -4.48460258E-01  2.69907600E+00  1.66826848E+00 -1.46738057E+00 -2.53146766E+00
  6.16068595E-01 -6.24599420E-02  3.11933699E+00  3.08517528E+00 -1.62131015E-02
  3.13645887E+00 -9.43482020E-01  1.03785733E+00  3.41489396E-02  2.23739336E+00
 -2.06445260E+00
ZRed-Constraint2                           R   N=          81
  0.00000000E+00  0.00000000E+00  0.00000000E+00  0.00000000E+00  1.35368251E+01
  0.00000000E+00  0.00000000E+00  0.00000000E+00  0.00000000E+00  0.00000000E+00
  0.00000000E+00  0.00000000E+00  0.00000000E+00  0.00000000E+00  0.00000000E+00
  0.00000000E+00  0.00000000E+00  0.00000000E+00  0.00000000E+00  0.00000000E+00
  0.00000000E+00  0.00000000E+00  0.00000000E+00  0.00000000E+00  0.00000000E+00
  0.00000000E+00  0.00000000E+00  0.00000000E+00  0.00000000E+00  0.00000000E+00
  0.00000000E+00  0.00000000E+00  0.00000000E+00  0.00000000E+00  0.00000000E+00
  0.00000000E+00  0.00000000E+00  0.00000000E+00  0.00000000E+00  0.00000000E+00
  0.00000000E+00  0.00000000E+00  0.00000000E+00  0.00000000E+00  0.00000000E+00
  0.00000000E+00  0.00000000E+00  0.00000000E+00  0.00000000E+00  0.00000000E+00
  0.00000000E+00  0.00000000E+00  0.00000000E+00  0.00000000E+00  0.00000000E+00
  0.00000000E+00  0.00000000E+00  0.00000000E+00  0.00000000E+00  0.00000000E+00
  0.00000000E+00  0.00000000E+00  0.00000000E+00  0.00000000E+00  0.00000000E+00
  0.00000000E+00  0.00000000E+00  0.00000000E+00  0.00000000E+00  0.00000000E+00
  0.00000000E+00  0.00000000E+00  0.00000000E+00  0.00000000E+00  0.00000000E+00
  0.00000000E+00  0.00000000E+00  0.00000000E+00  0.00000000E+00  0.00000000E+00
  0.00000000E+00
Force Field                                I                0
Atom Types                                 C   N=          19
                                                            
                                                            
                                                            
                                                
Int Atom Types                             I   N=          19
           0           0           0           0           0           0
           0           0           0           0           0           0
           0           0           0           0           0           0
           0
MM charges                                 R   N=          19
  0.00000000E+00  0.00000000E+00  0.00000000E+00  0.00000000E+00  0.00000000E+00
  0.00000000E+00  0.00000000E+00  0.00000000E+00  0.00000000E+00  0.00000000E+00
  0.00000000E+00  0.00000000E+00  0.00000000E+00  0.00000000E+00  0.00000000E+00
  0.00000000E+00  0.00000000E+00  0.00000000E+00  0.00000000E+00
Integer atomic weights                     I   N=          19
          12           1           1           1          12          16
          14           1          12           1           1          12
          16          14           1          12           1           1
           1
Real atomic weights                        R   N=          19
  1.20000000E+01  1.00782504E+00  1.00782504E+00  1.00782504E+00  1.20000000E+01
  1.59949146E+01  1.40030740E+01  1.00782504E+00  1.20000000E+01  1.00782504E+00
  1.00782504E+00  1.20000000E+01  1.59949146E+01  1.40030740E+01  1.00782504E+00
  1.20000000E+01  1.00782504E+00  1.00782504E+00  1.00782504E+00
Atom fragment info                         I   N=          19
           0           0           0           0           0           0
           0           0           0           0           0           0
           0           0           0           0           0           0
           0
Atom residue num                           I   N=          19
           0           0           0           0           0           0
           0           0           0           0           0           0
           0           0           0           0           0           0
           0
Nuclear spins                              I   N=          19
           0           1           1           1           0           0
           2           1           0           1           1           0
           0           2           1           0           1           1
           1
Nuclear ZEff                               R   N=          19
 -3.60000000E+00 -1.00000000E+00 -1.00000000E+00 -1.00000000E+00 -3.60000000E+00
 -5.60000000E+00 -4.55000000E+00 -1.00000000E+00 -3.60000000E+00 -1.00000000E+00
 -1.00000000E+00 -3.60000000E+00 -5.60000000E+00 -4.55000000E+00 -1.00000000E+00
 -3.60000000E+00 -1.00000000E+00 -1.00000000E+00 -1.00000000E+00
Nuclear ZNuc                               R   N=          19
  6.00000000E+00  1.00000000E+00  1.00000000E+00  1.00000000E+00  6.00000000E+00
  8.00000000E+00  7.00000000E+00  1.00000000E+00  6.00000000E+00  1.00000000E+00
  1.00000000E+00  6.00000000E+00  8.00000000E+00  7.00000000E+00  1.00000000E+00
  6.00000000E+00  1.00000000E+00  1.00000000E+00  1.00000000E+00
Nuclear QMom                               R   N=          19
  0.00000000E+00  0.00000000E+00  0.00000000E+00  0.00000000E+00  0.00000000E+00
  0.00000000E+00  2.04400000E+00  0.00000000E+00  0.00000000E+00  0.00000000E+00
  0.00000000E+00  0.00000000E+00  0.00000000E+00  2.04400000E+00  0.00000000E+00
  0.00000000E+00  0.00000000E+00  0.00000000E+00  0.00000000E+00
Nuclear GFac                               R   N=          19
  0.00000000E+00  2.79284600E+00  2.79284600E+00  2.79284600E+00  0.00000000E+00
  0.00000000E+00  4.03761000E-01  2.79284600E+00  0.00000000E+00  2.79284600E+00
  2.79284600E+00  0.00000000E+00  0.00000000E+00  4.03761000E-01  2.79284600E+00
  0.00000000E+00  2.79284600E+00  2.79284600E+00  2.79284600E+00
MicOpt                                     I   N=          19
          -1          -1          -1          -1          -1          -1
          -1          -1          -1          -1          -1          -1
          -1          -1          -1          -1          -1          -1
          -1
Number of residues                         I                0
Number of secondary structures             I                0
Number of contracted shells                I               56
Number of primitive shells                 I              139
Pure/Cartesian d shells                    I                1
Pure/Cartesian f shells                    I                0
Highest angular momentum                   I                1
Largest degree of contraction              I                6
Shell types                                I   N=          56
           0          -1          -1          -1           0           0
           0           0           0           0           0          -1
          -1          -1           0          -1          -1          -1
           0          -1          -1          -1           0           0
           0          -1          -1          -1           0           0
           0           0           0          -1          -1          -1
           0          -1          -1          -1           0          -1
          -1          -1           0           0           0          -1
          -1          -1           0           0           0           0
           0           0
Number of primitives per shell             I   N=          56
           6           3           1           1           3           1
           3           1           3           1           6           3
           1           1           6           3           1           1
           6           3           1           1           3           1
           6           3           1           1           3           1
           3           1           6           3           1           1
           6           3           1           1           6           3
           1           1           3           1           6           3
           1           1           3           1           3           1
           3           1
Shell to atom map                          I   N=          56
           1           1           1           1           2           2
           3           3           4           4           5           5
           5           5           6           6           6           6
           7           7           7           7           8           8
           9           9           9           9          10          10
          11          11          12          12          12          12
          13          13          13          13          14          14
          14          14          15          15          16          16
          16          16          17          17          18          18
          19          19
Primitive exponents                        R   N=         139
  3.04752488E+03  4.57369518E+02  1.03948685E+02  2.92101553E+01  9.28666296E+00
  3.16392696E+00  7.86827235E+00  1.88128854E+00  5.44249258E-01  1.68714478E-01
  4.38000000E-02  1.87311370E+01  2.82539436E+00  6.40121692E-01  1.61277759E-01
  1.87311370E+01  2.82539436E+00  6.40121692E-01  1.61277759E-01  1.87311370E+01
  2.82539436E+00  6.40121692E-01  1.61277759E-01  3.04752488E+03  4.57369518E+02
  1.03948685E+02  2.92101553E+01  9.28666296E+00  3.16392696E+00  7.86827235E+00
  1.88128854E+00  5.44249258E-01  1.68714478E-01  4.38000000E-02  5.48467166E+03
  8.25234946E+02  1.88046958E+02  5.29645000E+01  1.68975704E+01  5.79963534E+00
  1.55396162E+01  3.59993359E+00  1.01376175E+00  2.70005823E-01  8.45000000E-02
  4.17351146E+03  6.27457911E+02  1.42902093E+02  4.02343293E+01  1.28202129E+01
  4.39043701E+00  1.16263619E+01  2.71627981E+00  7.72218397E-01  2.12031498E-01
  6.39000000E-02  1.87311370E+01  2.82539436E+00  6.40121692E-01  1.61277759E-01
  3.04752488E+03  4.57369518E+02  1.03948685E+02  2.92101553E+01  9.28666296E+00
  3.16392696E+00  7.86827235E+00  1.88128854E+00  5.44249258E-01  1.68714478E-01
  4.38000000E-02  1.87311370E+01  2.82539436E+00  6.40121692E-01  1.61277759E-01
  1.87311370E+01  2.82539436E+00  6.40121692E-01  1.61277759E-01  3.04752488E+03
  4.57369518E+02  1.03948685E+02  2.92101553E+01  9.28666296E+00  3.16392696E+00
  7.86827235E+00  1.88128854E+00  5.44249258E-01  1.68714478E-01  4.38000000E-02
  5.48467166E+03  8.25234946E+02  1.88046958E+02  5.29645000E+01  1.68975704E+01
  5.79963534E+00  1.55396162E+01  3.59993359E+00  1.01376175E+00  2.70005823E-01
  8.45000000E-02  4.17351146E+03  6.27457911E+02  1.42902093E+02  4.02343293E+01
  1.28202129E+01  4.39043701E+00  1.16263619E+01  2.71627981E+00  7.72218397E-01
  2.12031498E-01  6.39000000E-02  1.87311370E+01  2.82539436E+00  6.40121692E-01
  1.61277759E-01  3.04752488E+03  4.57369518E+02  1.03948685E+02  2.92101553E+01
  9.28666296E+00  3.16392696E+00  7.86827235E+00  1.88128854E+00  5.44249258E-01
  1.68714478E-01  4.38000000E-02  1.87311370E+01  2.82539436E+00  6.40121692E-01
  1.61277759E-01  1.87311370E+01  2.82539436E+00  6.40121692E-01  1.61277759E-01
  1.87311370E+01  2.82539436E+00  6.40121692E-01  1.61277759E-01
Contraction coefficients                   R   N=         139
  1.83473713E-03  1.40373228E-02  6.88426223E-02  2.32184443E-01  4.67941348E-01
  3.62311985E-01 -1.19332420E-01 -1.60854152E-01  1.14345644E+00  1.00000000E+00
  1.00000000E+00  3.34946043E-02  2.34726953E-01  8.13757326E-01  1.00000000E+00
  3.34946043E-02  2.34726953E-01  8.13757326E-01  1.00000000E+00  3.34946043E-02
  2.34726953E-01  8.13757326E-01  1.00000000E+00  1.83473713E-03  1.40373228E-02
  6.88426223E-02  2.32184443E-01  4.67941348E-01  3.62311985E-01 -1.19332420E-01
 -1.60854152E-01  1.14345644E+00  1.00000000E+00  1.00000000E+00  1.83107443E-03
  1.39501722E-02  6.84450781E-02  2.32714336E-01  4.70192898E-01  3.58520853E-01
 -1.10777550E-01 -1.48026263E-01  1.13076702E+00  1.00000000E+00  1.00000000E+00
  1.83477216E-03  1.39946270E-02  6.85865518E-02  2.32240873E-01  4.69069948E-01
  3.60455199E-01 -1.14961182E-01 -1.69117479E-01  1.14585195E+00  1.00000000E+00
  1.00000000E+00  3.34946043E-02  2.34726953E-01  8.13757326E-01  1.00000000E+00
  1.83473713E-03  1.40373228E-02  6.88426223E-02  2.32184443E-01  4.67941348E-01
  3.62311985E-01 -1.19332420E-01 -1.60854152E-01  1.14345644E+00  1.00000000E+00
  1.00000000E+00  3.34946043E-02  2.34726953E-01  8.13757326E-01  1.00000000E+00
  3.34946043E-02  2.34726953E-01  8.13757326E-01  1.00000000E+00  1.83473713E-03
  1.40373228E-02  6.88426223E-02  2.32184443E-01  4.67941348E-01  3.62311985E-01
 -1.19332420E-01 -1.60854152E-01  1.14345644E+00  1.00000000E+00  1.00000000E+00
  1.83107443E-03  1.39501722E-02  6.84450781E-02  2.32714336E-01  4.70192898E-01
  3.58520853E-01 -1.10777550E-01 -1.48026263E-01  1.13076702E+00  1.00000000E+00
  1.00000000E+00  1.83477216E-03  1.39946270E-02  6.85865518E-02  2.32240873E-01
  4.69069948E-01  3.60455199E-01 -1.14961182E-01 -1.69117479E-01  1.14585195E+00
  1.00000000E+00  1.00000000E+00  3.34946043E-02  2.34726953E-01  8.13757326E-01
  1.00000000E+00  1.83473713E-03  1.40373228E-02  6.88426223E-02  2.32184443E-01
  4.67941348E-01  3.62311985E-01 -1.19332420E-01 -1.60854152E-01  1.14345644E+00
  1.00000000E+00  1.00000000E+00  3.34946043E-02  2.34726953E-01  8.13757326E-01
  1.00000000E+00  3.34946043E-02  2.34726953E-01  8.13757326E-01  1.00000000E+00
  3.34946043E-02  2.34726953E-01  8.13757326E-01  1.00000000E+00
P(S=P) Contraction coefficients            R   N=         139
  0.00000000E+00  0.00000000E+00  0.00000000E+00  0.00000000E+00  0.00000000E+00
  0.00000000E+00  6.89990666E-02  3.16423961E-01  7.44308291E-01  1.00000000E+00
  1.00000000E+00  0.00000000E+00  0.00000000E+00  0.00000000E+00  0.00000000E+00
  0.00000000E+00  0.00000000E+00  0.00000000E+00  0.00000000E+00  0.00000000E+00
  0.00000000E+00  0.00000000E+00  0.00000000E+00  0.00000000E+00  0.00000000E+00
  0.00000000E+00  0.00000000E+00  0.00000000E+00  0.00000000E+00  6.89990666E-02
  3.16423961E-01  7.44308291E-01  1.00000000E+00  1.00000000E+00  0.00000000E+00
  0.00000000E+00  0.00000000E+00  0.00000000E+00  0.00000000E+00  0.00000000E+00
  7.08742682E-02  3.39752839E-01  7.27158577E-01  1.00000000E+00  1.00000000E+00
  0.00000000E+00  0.00000000E+00  0.00000000E+00  0.00000000E+00  0.00000000E+00
  0.00000000E+00  6.75797439E-02  3.23907296E-01  7.40895140E-01  1.00000000E+00
  1.00000000E+00  0.00000000E+00  0.00000000E+00  0.00000000E+00  0.00000000E+00
  0.00000000E+00  0.00000000E+00  0.00000000E+00  0.00000000E+00  0.00000000E+00
  0.00000000E+00  6.89990666E-02  3.16423961E-01  7.44308291E-01  1.00000000E+00
  1.00000000E+00  0.00000000E+00  0.00000000E+00  0.00000000E+00  0.00000000E+00
  0.00000000E+00  0.00000000E+00  0.00000000E+00  0.00000000E+00  0.00000000E+00
  0.00000000E+00  0.00000000E+00  0.00000000E+00  0.00000000E+00  0.00000000E+00
  6.89990666E-02  3.16423961E-01  7.44308291E-01  1.00000000E+00  1.00000000E+00
  0.00000000E+00  0.00000000E+00  0.00000000E+00  0.00000000E+00  0.00000000E+00
  0.00000000E+00  7.08742682E-02  3.39752839E-01  7.27158577E-01  1.00000000E+00
  1.00000000E+00  0.00000000E+00  0.00000000E+00  0.00000000E+00  0.00000000E+00
  0.00000000E+00  0.00000000E+00  6.75797439E-02  3.23907296E-01  7.40895140E-01
  1.00000000E+00  1.00000000E+00  0.00000000E+00  0.00000000E+00  0.00000000E+00
  0.00000000E+00  0.00000000E+00  0.00000000E+00  0.00000000E+00  0.00000000E+00
  0.00000000E+00  0.00000000E+00  6.89990666E-02  3.16423961E-01  7.44308291E-01
  1.00000000E+00  1.00000000E+00  0.00000000E+00  0.00000000E+00  0.00000000E+00
  0.00000000E+00  0.00000000E+00  0.00000000E+00  0.00000000E+00  0.00000000E+00
  0.00000000E+00  0.00000000E+00  0.00000000E+00  0.00000000E+00
Coordinates of each shell                  R   N=         168
 -6.31836055E+00  1.79394723E+00  3.85960409E-01 -6.31836055E+00  1.79394723E+00
  3.85960409E-01 -6.31836055E+00  1.79394723E+00  3.85960409E-01 -6.31836055E+00
  1.79394723E+00  3.85960409E-01 -5.55851421E+00  3.66943659E+00 -5.13091027E-02
 -5.55851421E+00  3.66943659E+00 -5.13091027E-02 -7.94345062E+00  1.40903116E+00
 -8.39310821E-01 -7.94345062E+00  1.40903116E+00 -8.39310821E-01 -6.99234325E+00
  1.77801231E+00  2.34791589E+00 -6.99234325E+00  1.77801231E+00  2.34791589E+00
 -4.38434826E+00 -2.94444844E-01  5.29080627E-02 -4.38434826E+00 -2.94444844E-01
  5.29080627E-02 -4.38434826E+00 -2.94444844E-01  5.29080627E-02 -4.38434826E+00
 -2.94444844E-01  5.29080627E-02 -4.95399826E+00 -2.57816285E+00  1.87324431E-01
 -4.95399826E+00 -2.57816285E+00  1.87324431E-01 -4.95399826E+00 -2.57816285E+00
  1.87324431E-01 -4.95399826E+00 -2.57816285E+00  1.87324431E-01 -1.97465930E+00
  4.79007623E-01 -3.56514256E-01 -1.97465930E+00  4.79007623E-01 -3.56514256E-01
 -1.97465930E+00  4.79007623E-01 -3.56514256E-01 -1.97465930E+00  4.79007623E-01
 -3.56514256E-01 -1.48963595E+00  2.32823589E+00 -4.25197829E-01 -1.48963595E+00
  2.32823589E+00 -4.25197829E-01  9.75063183E-02 -1.29251741E+00 -5.33472895E-01
  9.75063183E-02 -1.29251741E+00 -5.33472895E-01  9.75063183E-02 -1.29251741E+00
 -5.33472895E-01  9.75063183E-02 -1.29251741E+00 -5.33472895E-01  1.03244823E-01
 -2.27038135E+00 -2.37268526E+00  1.03244823E-01 -2.27038135E+00 -2.37268526E+00
 -1.00712213E-01 -2.74923343E+00  9.34479543E-01 -1.00712213E-01 -2.74923343E+00
  9.34479543E-01  2.55144755E+00  1.96380459E-01 -2.15198896E-01  2.55144755E+00
  1.96380459E-01 -2.15198896E-01  2.55144755E+00  1.96380459E-01 -2.15198896E-01
  2.55144755E+00  1.96380459E-01 -2.15198896E-01  2.57754738E+00  2.55111657E+00
 -2.98263553E-01  2.57754738E+00  2.55111657E+00 -2.98263553E-01  2.57754738E+00
  2.55111657E+00 -2.98263553E-01  2.57754738E+00  2.55111657E+00 -2.98263553E-01
  4.67377626E+00 -1.17993483E+00  1.47019941E-01  4.67377626E+00 -1.17993483E+00
  1.47019941E-01  4.67377626E+00 -1.17993483E+00  1.47019941E-01  4.67377626E+00
 -1.17993483E+00  1.47019941E-01  4.57632738E+00 -3.08126967E+00  2.40428111E-01
  4.57632738E+00 -3.08126967E+00  2.40428111E-01  7.10833546E+00  7.22773401E-02
  4.58931254E-01  7.10833546E+00  7.22773401E-02  4.58931254E-01  7.10833546E+00