 Entering Gaussian System, Link 0=g09
 Input=moh-xF-1.9.com
 Output=moh-xF-1.9.log
 Initial command:
 /hits/fast/mbm/software/gaussian/g09d1/g09/l1.exe /hits/fast/mbm/farrugma/gaussian_scratch/Gau-7927.inp -scrdir=/hits/fast/mbm/farrugma/gaussian_scratch/
 Entering Link 1 = /hits/fast/mbm/software/gaussian/g09d1/g09/l1.exe PID=      7928.
  
 Copyright (c) 1988,1990,1992,1993,1995,1998,2003,2009,2013,
            Gaussian, Inc.  All Rights Reserved.
  
 This is part of the Gaussian(R) 09 program.  It is based on
 the Gaussian(R) 03 system (copyright 2003, Gaussian, Inc.),
 the Gaussian(R) 98 system (copyright 1998, Gaussian, Inc.),
 the Gaussian(R) 94 system (copyright 1995, Gaussian, Inc.),
 the Gaussian 92(TM) system (copyright 1992, Gaussian, Inc.),
 the Gaussian 90(TM) system (copyright 1990, Gaussian, Inc.),
 the Gaussian 88(TM) system (copyright 1988, Gaussian, Inc.),
 the Gaussian 86(TM) system (copyright 1986, Carnegie Mellon
 University), and the Gaussian 82(TM) system (copyright 1983,
 Carnegie Mellon University). Gaussian is a federally registered
 trademark of Gaussian, Inc.
  
 This software contains proprietary and confidential information,
 including trade secrets, belonging to Gaussian, Inc.
  
 This software is provided under written license and may be
 used, copied, transmitted, or stored only in accord with that
 written license.
  
 The following legend is applicable only to US Government
 contracts under FAR:
  
                    RESTRICTED RIGHTS LEGEND
  
 Use, reproduction and disclosure by the US Government is
 subject to restrictions as set forth in subparagraphs (a)
 and (c) of the Commercial Computer Software - Restricted
 Rights clause in FAR 52.227-19.
  
 Gaussian, Inc.
 340 Quinnipiac St., Bldg. 40, Wallingford CT 06492
  
  
 ---------------------------------------------------------------
 Warning -- This program may not be used in any manner that
 competes with the business of Gaussian, Inc. or will provide
 assistance to any competitor of Gaussian, Inc.  The licensee
 of this program is prohibited from giving any competitor of
 Gaussian, Inc. access to this program.  By using this program,
 the user acknowledges that Gaussian, Inc. is engaged in the
 business of creating and licensing software in the field of
 computational chemistry and represents and warrants to the
 licensee that it is not a competitor of Gaussian, Inc. and that
 it will not use this program in any manner prohibited above.
 ---------------------------------------------------------------
  

 Cite this work as:
 Gaussian 09, Revision D.01,
 M. J. Frisch, G. W. Trucks, H. B. Schlegel, G. E. Scuseria, 
 M. A. Robb, J. R. Cheeseman, G. Scalmani, V. Barone, B. Mennucci, 
 G. A. Petersson, H. Nakatsuji, M. Caricato, X. Li, H. P. Hratchian, 
 A. F. Izmaylov, J. Bloino, G. Zheng, J. L. Sonnenberg, M. Hada, 
 M. Ehara, K. Toyota, R. Fukuda, J. Hasegawa, M. Ishida, T. Nakajima, 
 Y. Honda, O. Kitao, H. Nakai, T. Vreven, J. A. Montgomery, Jr., 
 J. E. Peralta, F. Ogliaro, M. Bearpark, J. J. Heyd, E. Brothers, 
 K. N. Kudin, V. N. Staroverov, T. Keith, R. Kobayashi, J. Normand, 
 K. Raghavachari, A. Rendell, J. C. Burant, S. S. Iyengar, J. Tomasi, 
 M. Cossi, N. Rega, J. M. Millam, M. Klene, J. E. Knox, J. B. Cross, 
 V. Bakken, C. Adamo, J. Jaramillo, R. Gomperts, R. E. Stratmann, 
 O. Yazyev, A. J. Austin, R. Cammi, C. Pomelli, J. W. Ochterski, 
 R. L. Martin, K. Morokuma, V. G. Zakrzewski, G. A. Voth, 
 P. Salvador, J. J. Dannenberg, S. Dapprich, A. D. Daniels, 
 O. Farkas, J. B. Foresman, J. V. Ortiz, J. Cioslowski, 
 and D. J. Fox, Gaussian, Inc., Wallingford CT, 2013.
 
 ******************************************
 Gaussian 09:  ES64L-G09RevD.01 24-Apr-2013
                 5-Jul-2022 
 ******************************************
 %chk=moh-xF-1.9.chk
 -----------------------------------------------
 # opt=modredundant 6-31+g geom=connectivity bmk
 -----------------------------------------------
 1/14=-1,18=120,19=15,26=3,38=1,57=2/1,3;
 2/9=110,12=2,17=6,18=5,40=1/2;
 3/5=1,6=6,7=10,11=2,16=1,25=1,30=1,71=1,74=-34/1,2,3;
 4//1;
 5/5=2,38=5/2;
 6/7=2,8=2,9=2,10=2,28=1/1;
 7//1,2,3,16;
 1/14=-1,18=20,19=15,26=3/3(2);
 2/9=110/2;
 99//99;
 2/9=110/2;
 3/5=1,6=6,7=10,11=2,16=1,25=1,30=1,71=1,74=-34/1,2,3;
 4/5=5,16=3,69=1/1;
 5/5=2,38=5/2;
 7//1,2,3,16;
 1/14=-1,18=20,19=15,26=3/3(-5);
 2/9=110/2;
 6/7=2,8=2,9=2,10=2,19=2,28=1/1;
 99/9=1/99;
 -------------------
 Title Card Required
 -------------------
 Symbolic Z-matrix:
 Charge =  0 Multiplicity = 1
 C                     0.92174  -0.00965   0. 
 H                     1.14804   1.04958  -0.00011 
 H                     1.14836  -0.53532   0.9225 
 H                     1.14838  -0.53552  -0.92238 
 O                    -0.97409   0.11612  0. 
 H                    -1.18244  -0.84983   0. 
 
 The following ModRedundant input section has been read:
 B       1       5 F                                                           
 

 GradGradGradGradGradGradGradGradGradGradGradGradGradGradGradGradGradGrad
 Berny optimization.
 Initialization pass.
                           ----------------------------
                           !    Initial Parameters    !
                           ! (Angstroms and Degrees)  !
 --------------------------                            --------------------------
 ! Name  Definition              Value          Derivative Info.                !
 --------------------------------------------------------------------------------
 ! R1    R(1,2)                  1.0831         estimate D2E/DX2                !
 ! R2    R(1,3)                  1.0857         estimate D2E/DX2                !
 ! R3    R(1,4)                  1.0857         estimate D2E/DX2                !
 ! R4    R(1,5)                  1.9            Frozen                          !
 ! R5    R(5,6)                  0.9882         estimate D2E/DX2                !
 ! A1    A(2,1,3)              115.4661         estimate D2E/DX2                !
 ! A2    A(2,1,4)              115.466          estimate D2E/DX2                !
 ! A3    A(2,1,5)               98.2642         estimate D2E/DX2                !
 ! A4    A(3,1,4)              116.3464         estimate D2E/DX2                !
 ! A5    A(3,1,5)              103.9063         estimate D2E/DX2                !
 ! A6    A(4,1,5)              103.9077         estimate D2E/DX2                !
 ! A7    A(1,5,6)               98.3764         estimate D2E/DX2                !
 ! D1    D(2,1,5,6)            179.9941         estimate D2E/DX2                !
 ! D2    D(3,1,5,6)            -61.0871         estimate D2E/DX2                !
 ! D3    D(4,1,5,6)             61.0749         estimate D2E/DX2                !
 --------------------------------------------------------------------------------
 Trust Radius=3.00D-01 FncErr=1.00D-07 GrdErr=1.00D-06
 Number of steps in this run=     25 maximum allowed number of steps=    100.
 GradGradGradGradGradGradGradGradGradGradGradGradGradGradGradGradGradGrad

                          Input orientation:                          
 ---------------------------------------------------------------------
 Center     Atomic      Atomic             Coordinates (Angstroms)
 Number     Number       Type             X           Y           Z
 ---------------------------------------------------------------------
      1          6           0        0.921738   -0.009649    0.000000
      2          1           0        1.148037    1.049577   -0.000114
      3          1           0        1.148363   -0.535316    0.922498
      4          1           0        1.148377   -0.535518   -0.922379
      5          8           0       -0.974095    0.116122   -0.000001
      6          1           0       -1.182444   -0.849829    0.000002
 ---------------------------------------------------------------------
                    Distance matrix (angstroms):
                    1          2          3          4          5
     1  C    0.000000
     2  H    1.083130   0.000000
     3  H    1.085673   1.833876   0.000000
     4  H    1.085674   1.833876   1.844877   0.000000
     5  O    1.900000   2.318358   2.404205   2.404226   0.000000
     6  H    2.265719   3.006474   2.526376   2.526322   0.988165
                    6
     6  H    0.000000
 Stoichiometry    CH4O
 Framework group  C1[X(CH4O)]
 Deg. of freedom    12
 Full point group                 C1      NOp   1
 Largest Abelian subgroup         C1      NOp   1
 Largest concise Abelian subgroup C1      NOp   1
                         Standard orientation:                         
 ---------------------------------------------------------------------
 Center     Atomic      Atomic             Coordinates (Angstroms)
 Number     Number       Type             X           Y           Z
 ---------------------------------------------------------------------
      1          6           0        0.921723   -0.010944    0.000000
      2          1           0        1.149512    1.047962   -0.000114
      3          1           0        1.147609   -0.536930    0.922498
      4          1           0        1.147623   -0.537132   -0.922379
      5          8           0       -0.973931    0.117491   -0.000001
      6          1           0       -1.183637   -0.848166    0.000002
 ---------------------------------------------------------------------
 Rotational constants (GHZ):    117.5938939     15.6207470     15.2128559
 Standard basis: 6-31+G (6D, 7F)
 There are    34 symmetry adapted cartesian basis functions of A   symmetry.
 There are    34 symmetry adapted basis functions of A   symmetry.
    34 basis functions,    68 primitive gaussians,    34 cartesian basis functions
     9 alpha electrons        9 beta electrons
       nuclear repulsion energy        34.6411442122 Hartrees.
 NAtoms=    6 NActive=    6 NUniq=    6 SFac= 1.00D+00 NAtFMM=   60 NAOKFM=F Big=F
 Integral buffers will be    131072 words long.
 Raffenetti 2 integral format.
 Two-electron integral symmetry is turned on.
 One-electron integrals computed using PRISM.
 NBasis=    34 RedAO= T EigKep=  1.01D-02  NBF=    34
 NBsUse=    34 1.00D-06 EigRej= -1.00D+00 NBFU=    34
 ExpMin= 4.38D-02 ExpMax= 5.48D+03 ExpMxC= 8.25D+02 IAcc=2 IRadAn=         4 AccDes= 0.00D+00
 Harris functional with IExCor= 1009 and IRadAn=       4 diagonalized for initial guess.
 HarFok:  IExCor= 1009 AccDes= 0.00D+00 IRadAn=         4 IDoV= 1 UseB2=F ITyADJ=14
 ICtDFT=  3500011 ScaDFX=  1.000000  1.000000  1.000000  1.000000
 FoFCou: FMM=F IPFlag=           0 FMFlag=      100000 FMFlg1=           0
         NFxFlg=           0 DoJE=T BraDBF=F KetDBF=T FulRan=T
         wScrn=  0.000000 ICntrl=     500 IOpCl=  0 I1Cent=   200000004 NGrid=           0
         NMat0=    1 NMatS0=      1 NMatT0=    0 NMatD0=    1 NMtDS0=    0 NMtDT0=    0
 Petite list used in FoFCou.
 Keep R1 ints in memory in canonical form, NReq=1060842.
 Requested convergence on RMS density matrix=1.00D-08 within 128 cycles.
 Requested convergence on MAX density matrix=1.00D-06.
 Requested convergence on             energy=1.00D-06.
 No special actions if energy rises.
 SCF Done:  E(RBMK) =  -115.567352611     A.U. after    9 cycles
            NFock=  9  Conv=0.76D-08     -V/T= 2.0088

 **********************************************************************

            Population analysis using the SCF density.

 **********************************************************************

 Orbital symmetries:
       Occupied  (A) (A) (A) (A) (A) (A) (A) (A) (A)
       Virtual   (A) (A) (A) (A) (A) (A) (A) (A) (A) (A) (A) (A)
                 (A) (A) (A) (A) (A) (A) (A) (A) (A) (A) (A) (A)
                 (A)
 The electronic state is 1-A.
 Alpha  occ. eigenvalues --  -19.55120 -10.54931  -1.03575  -0.77814  -0.50905
 Alpha  occ. eigenvalues --   -0.50081  -0.45189  -0.36905  -0.32398
 Alpha virt. eigenvalues --   -0.01499   0.04688   0.08439   0.08845   0.10503
 Alpha virt. eigenvalues --    0.18968   0.21759   0.22440   0.23791   0.26861
 Alpha virt. eigenvalues --    0.28979   0.29698   0.38692   0.66647   0.68195
 Alpha virt. eigenvalues --    0.69196   1.05313   1.05947   1.07975   1.14323
 Alpha virt. eigenvalues --    1.23007   1.28612   1.33313   1.38181   1.79172
          Condensed to atoms (all electrons):
               1          2          3          4          5          6
     1  C    5.146863   0.380540   0.362950   0.362947   0.159475  -0.005194
     2  H    0.380540   0.456012  -0.023624  -0.023624  -0.026367   0.002409
     3  H    0.362950  -0.023624   0.505923  -0.030292  -0.023477  -0.001285
     4  H    0.362947  -0.023624  -0.030292   0.505928  -0.023474  -0.001285
     5  O    0.159475  -0.026367  -0.023477  -0.023474   8.373631   0.160844
     6  H   -0.005194   0.002409  -0.001285  -0.001285   0.160844   0.470556
 Mulliken charges:
               1
     1  C   -0.407582
     2  H    0.234654
     3  H    0.209805
     4  H    0.209800
     5  O   -0.620632
     6  H    0.373955
 Sum of Mulliken charges =   0.00000
 Mulliken charges with hydrogens summed into heavy atoms:
               1
     1  C    0.246677
     5  O   -0.246677
 Electronic spatial extent (au):  <R**2>=            108.6938
 Charge=              0.0000 electrons
 Dipole moment (field-independent basis, Debye):
    X=              2.7075    Y=             -2.0297    Z=              0.0000  Tot=              3.3838
 Quadrupole moment (field-independent basis, Debye-Ang):
   XX=            -13.4501   YY=            -11.9567   ZZ=            -13.9209
   XY=              2.7540   XZ=              0.0000   YZ=              0.0000
 Traceless Quadrupole moment (field-independent basis, Debye-Ang):
   XX=             -0.3409   YY=              1.1525   ZZ=             -0.8116
   XY=              2.7540   XZ=              0.0000   YZ=              0.0000
 Octapole moment (field-independent basis, Debye-Ang**2):
  XXX=             -0.6710  YYY=             -0.7271  ZZZ=              0.0003  XYY=             -0.8501
  XXY=             -3.3603  XXZ=              0.0000  XZZ=              1.2560  YZZ=             -1.2906
  YYZ=             -0.0003  XYZ=              0.0000
 Hexadecapole moment (field-independent basis, Debye-Ang**3):
 XXXX=            -94.7322 YYYY=            -20.0401 ZZZZ=            -20.3277 XXXY=              5.2086
 XXXZ=             -0.0001 YYYX=              3.8976 YYYZ=              0.0000 ZZZX=              0.0003
 ZZZY=              0.0000 XXYY=            -17.0448 XXZZ=            -19.3680 YYZZ=             -6.9325
 XXYZ=              0.0000 YYXZ=             -0.0004 ZZXY=             -0.3671
 N-N= 3.464114421220D+01 E-N=-3.401921955282D+02  KE= 1.145596675431D+02
 Calling FoFJK, ICntrl=      2127 FMM=F ISym2X=0 I1Cent= 0 IOpClX= 0 NMat=1 NMatS=1 NMatT=0.
 ***** Axes restored to original set *****
 -------------------------------------------------------------------
 Center     Atomic                   Forces (Hartrees/Bohr)
 Number     Number              X              Y              Z
 -------------------------------------------------------------------
      1        6          -0.079990794    0.007558177    0.000000186
      2        1           0.000531226    0.002051634   -0.000000141
      3        1          -0.000388400   -0.000840650    0.001827595
      4        1          -0.000389535   -0.000840956   -0.001827328
      5        8           0.082624335   -0.016700188   -0.000000416
      6        1          -0.002386832    0.008771984    0.000000104
 -------------------------------------------------------------------
 Cartesian Forces:  Max     0.082624335 RMS     0.027544774

 GradGradGradGradGradGradGradGradGradGradGradGradGradGradGradGradGradGrad
 Berny optimization.
 FormGI is forming the generalized inverse of G from B-inverse, IUseBI=4.
 Internal  Forces:  Max     0.080592724 RMS     0.021034076
 Search for a local minimum.
 Step number   1 out of a maximum of   25
 All quantities printed in internal units (Hartrees-Bohrs-Radians)
 Mixed Optimization -- RFO/linear search
 Second derivative matrix not updated -- first step.
 The second derivative matrix:
                          R1        R2        R3        R4        R5
           R1           0.35619
           R2           0.00000   0.35317
           R3           0.00000   0.00000   0.35317
           R4           0.00000   0.00000   0.00000   0.11025
           R5           0.00000   0.00000   0.00000   0.00000   0.49831
           A1           0.00000   0.00000   0.00000   0.00000   0.00000
           A2           0.00000   0.00000   0.00000   0.00000   0.00000
           A3           0.00000   0.00000   0.00000   0.00000   0.00000
           A4           0.00000   0.00000   0.00000   0.00000   0.00000
           A5           0.00000   0.00000   0.00000   0.00000   0.00000
           A6           0.00000   0.00000   0.00000   0.00000   0.00000
           A7           0.00000   0.00000   0.00000   0.00000   0.00000
           D1           0.00000   0.00000   0.00000   0.00000   0.00000
           D2           0.00000   0.00000   0.00000   0.00000   0.00000
           D3           0.00000   0.00000   0.00000   0.00000   0.00000
                          A1        A2        A3        A4        A5
           A1           0.16000
           A2           0.00000   0.16000
           A3           0.00000   0.00000   0.16000
           A4           0.00000   0.00000   0.00000   0.16000
           A5           0.00000   0.00000   0.00000   0.00000   0.16000
           A6           0.00000   0.00000   0.00000   0.00000   0.00000
           A7           0.00000   0.00000   0.00000   0.00000   0.00000
           D1           0.00000   0.00000   0.00000   0.00000   0.00000
           D2           0.00000   0.00000   0.00000   0.00000   0.00000
           D3           0.00000   0.00000   0.00000   0.00000   0.00000
                          A6        A7        D1        D2        D3
           A6           0.16000
           A7           0.00000   0.16000
           D1           0.00000   0.00000   0.00230
           D2           0.00000   0.00000   0.00000   0.00230
           D3           0.00000   0.00000   0.00000   0.00000   0.00230
 ITU=  0
     Eigenvalues ---    0.00230   0.10933   0.11376   0.16000   0.16000
     Eigenvalues ---    0.16000   0.16000   0.35317   0.35317   0.35619
     Eigenvalues ---    0.498311000.000001000.000001000.000001000.00000
 RFO step:  Lambda=-5.66615886D-04 EMin= 2.30000000D-03
 Linear search not attempted -- first point.
 Iteration  1 RMS(Cart)=  0.01782713 RMS(Int)=  0.00039978
 Iteration  2 RMS(Cart)=  0.00038970 RMS(Int)=  0.00001557
 Iteration  3 RMS(Cart)=  0.00000013 RMS(Int)=  0.00001557
 Iteration  1 RMS(Cart)=  0.00000000 RMS(Int)=  0.00000000
 Variable       Old X    -DE/DX   Delta X   Delta X   Delta X     New X
                                 (Linear)    (Quad)   (Total)
    R1        2.04682   0.00212   0.00000   0.00595   0.00595   2.05277
    R2        2.05163   0.00188   0.00000   0.00530   0.00530   2.05693
    R3        2.05163   0.00188   0.00000   0.00530   0.00530   2.05693
    R4        3.59048  -0.08059   0.00000   0.00000   0.00000   3.59048
    R5        1.86736  -0.00806   0.00000  -0.01615  -0.01615   1.85121
    A1        2.01526   0.00033   0.00000   0.00235   0.00234   2.01761
    A2        2.01526   0.00033   0.00000   0.00235   0.00234   2.01761
    A3        1.71503   0.00038   0.00000   0.00259   0.00258   1.71762
    A4        2.03063   0.00078   0.00000   0.00435   0.00431   2.03494
    A5        1.81351  -0.00124   0.00000  -0.00786  -0.00788   1.80563
    A6        1.81353  -0.00124   0.00000  -0.00788  -0.00789   1.80564
    A7        1.71699   0.00779   0.00000   0.04853   0.04853   1.76552
    D1        3.14149   0.00000   0.00000   0.00002   0.00002   3.14151
    D2       -1.06617   0.00012   0.00000   0.00110   0.00108  -1.06509
    D3        1.06596  -0.00012   0.00000  -0.00107  -0.00104   1.06492
         Item               Value     Threshold  Converged?
 Maximum Force            0.008059     0.000450     NO 
 RMS     Force            0.003177     0.000300     NO 
 Maximum Displacement     0.054422     0.001800     NO 
 RMS     Displacement     0.017628     0.001200     NO 
 Predicted change in Energy=-2.841146D-04
 GradGradGradGradGradGradGradGradGradGradGradGradGradGradGradGradGradGrad

                          Input orientation:                          
 ---------------------------------------------------------------------
 Center     Atomic      Atomic             Coordinates (Angstroms)
 Number     Number       Type             X           Y           Z
 ---------------------------------------------------------------------
      1          6           0        0.930180   -0.007536    0.000001
      2          1           0        1.150705    1.056122   -0.000112
      3          1           0        1.153496   -0.534062    0.926116
      4          1           0        1.153506   -0.534261   -0.925998
      5          8           0       -0.966668    0.101860   -0.000010
      6          1           0       -1.211243   -0.846735    0.000009
 ---------------------------------------------------------------------
                    Distance matrix (angstroms):
                    1          2          3          4          5
     1  C    0.000000
     2  H    1.086278   0.000000
     3  H    1.088480   1.840270   0.000000
     4  H    1.088480   1.840270   1.852114   0.000000
     5  O    1.900000   2.322474   2.399417   2.399426   0.000000
     6  H    2.299989   3.033095   2.558794   2.558743   0.979617
                    6
     6  H    0.000000
 Stoichiometry    CH4O
 Framework group  C1[X(CH4O)]
 Deg. of freedom    12
 Full point group                 C1      NOp   1
 Largest Abelian subgroup         C1      NOp   1
 Largest concise Abelian subgroup C1      NOp   1
                         Standard orientation:                         
 ---------------------------------------------------------------------
 Center     Atomic      Atomic             Coordinates (Angstroms)
 Number     Number       Type             X           Y           Z
 ---------------------------------------------------------------------
      1          6           0        0.924856   -0.013181    0.000004
      2          1           0        1.157562    1.047879   -0.000109
      3          1           0        1.142121   -0.542233    0.926119
      4          1           0        1.142129   -0.542432   -0.925995
      5          8           0       -0.970613    0.117955   -0.000006
      6          1           0       -1.226047   -0.827774    0.000012
 ---------------------------------------------------------------------
 Rotational constants (GHZ):    117.8012093     15.5806916     15.1906110
 Standard basis: 6-31+G (6D, 7F)
 There are    34 symmetry adapted cartesian basis functions of A   symmetry.
 There are    34 symmetry adapted basis functions of A   symmetry.
    34 basis functions,    68 primitive gaussians,    34 cartesian basis functions
     9 alpha electrons        9 beta electrons
       nuclear repulsion energy        34.6278945074 Hartrees.
 NAtoms=    6 NActive=    6 NUniq=    6 SFac= 1.00D+00 NAtFMM=   60 NAOKFM=F Big=F
 Integral buffers will be    131072 words long.
 Raffenetti 2 integral format.
 Two-electron integral symmetry is turned on.
 One-electron integrals computed using PRISM.
 NBasis=    34 RedAO= T EigKep=  1.02D-02  NBF=    34
 NBsUse=    34 1.00D-06 EigRej= -1.00D+00 NBFU=    34
 Initial guess from the checkpoint file:  "moh-xF-1.9.chk"
 B after Tr=     0.000000    0.000000    0.000000
         Rot=    0.999997    0.000001    0.000002    0.002566 Ang=   0.29 deg.
 ExpMin= 4.38D-02 ExpMax= 5.48D+03 ExpMxC= 8.25D+02 IAcc=2 IRadAn=         4 AccDes= 0.00D+00
 Harris functional with IExCor= 1009 and IRadAn=       4 diagonalized for initial guess.
 HarFok:  IExCor= 1009 AccDes= 0.00D+00 IRadAn=         4 IDoV= 1 UseB2=F ITyADJ=14
 ICtDFT=  3500011 ScaDFX=  1.000000  1.000000  1.000000  1.000000
 FoFCou: FMM=F IPFlag=           0 FMFlag=      100000 FMFlg1=           0
         NFxFlg=           0 DoJE=T BraDBF=F KetDBF=T FulRan=T
         wScrn=  0.000000 ICntrl=     500 IOpCl=  0 I1Cent=   200000004 NGrid=           0
         NMat0=    1 NMatS0=      1 NMatT0=    0 NMatD0=    1 NMtDS0=    0 NMtDT0=    0
 Petite list used in FoFCou.
 Keep R1 ints in memory in canonical form, NReq=1060842.
 Requested convergence on RMS density matrix=1.00D-08 within 128 cycles.
 Requested convergence on MAX density matrix=1.00D-06.
 Requested convergence on             energy=1.00D-06.
 No special actions if energy rises.
 SCF Done:  E(RBMK) =  -115.567680547     A.U. after    9 cycles
            NFock=  9  Conv=0.22D-08     -V/T= 2.0088
 Calling FoFJK, ICntrl=      2127 FMM=F ISym2X=0 I1Cent= 0 IOpClX= 0 NMat=1 NMatS=1 NMatT=0.
 ***** Axes restored to original set *****
 -------------------------------------------------------------------
 Center     Atomic                   Forces (Hartrees/Bohr)
 Number     Number              X              Y              Z
 -------------------------------------------------------------------
      1        6          -0.080734722    0.004764304   -0.000000214
      2        1          -0.000482741   -0.000165055    0.000000024
      3        1          -0.000064779    0.000127107   -0.000191671
      4        1          -0.000065186    0.000127143    0.000191518
      5        8           0.081996873   -0.005923726    0.000000211
      6        1          -0.000649446    0.001070227    0.000000132
 -------------------------------------------------------------------
 Cartesian Forces:  Max     0.081996873 RMS     0.027183853

 GradGradGradGradGradGradGradGradGradGradGradGradGradGradGradGradGradGrad
 Berny optimization.
 Using GEDIIS/GDIIS optimizer.
 FormGI is forming the generalized inverse of G from B-inverse, IUseBI=4.
 Internal  Forces:  Max     0.081499819 RMS     0.021050075
 Search for a local minimum.
 Step number   2 out of a maximum of   25
 All quantities printed in internal units (Hartrees-Bohrs-Radians)
 Mixed Optimization -- En-DIIS/RFO-DIIS
 Update second derivatives using D2CorX and points    1    2
 DE= -3.28D-04 DEPred=-2.84D-04 R= 1.15D+00
 TightC=F SS=  1.41D+00  RLast= 5.36D-02 DXNew= 5.0454D-01 1.6073D-01
 Trust test= 1.15D+00 RLast= 5.36D-02 DXMaxT set to 3.00D-01
 The second derivative matrix:
                          R1        R2        R3        R4        R5
           R1           0.36001
           R2           0.00346   0.35631
           R3           0.00346   0.00314   0.35631
           R4           0.00449   0.00400   0.00400   0.11197
           R5          -0.00548  -0.00511  -0.00511  -0.01362   0.49174
           A1          -0.00058  -0.00051  -0.00051   0.00031   0.00285
           A2          -0.00058  -0.00051  -0.00051   0.00031   0.00285
           A3           0.00444   0.00397   0.00397   0.00229  -0.01226
           A4           0.00069   0.00064   0.00064   0.00125  -0.00012
           A5          -0.00176  -0.00161  -0.00161  -0.00248   0.00172
           A6          -0.00176  -0.00161  -0.00161  -0.00248   0.00171
           A7           0.00138   0.00144   0.00145   0.01165   0.01817
           D1           0.00000   0.00000   0.00000   0.00000   0.00000
           D2           0.00105   0.00094   0.00094   0.00041  -0.00319
           D3          -0.00105  -0.00094  -0.00094  -0.00041   0.00319
                          A1        A2        A3        A4        A5
           A1           0.15981
           A2          -0.00019   0.15981
           A3           0.00014   0.00014   0.16274
           A4          -0.00023  -0.00023   0.00116   0.16007
           A5           0.00038   0.00038  -0.00238  -0.00027   0.16077
           A6           0.00038   0.00038  -0.00238  -0.00027   0.00077
           A7          -0.00302  -0.00302   0.00984  -0.00098   0.00050
           D1           0.00000   0.00000   0.00000   0.00000   0.00000
           D2           0.00007   0.00007   0.00054   0.00029  -0.00058
           D3          -0.00007  -0.00007  -0.00054  -0.00029   0.00058
                          A6        A7        D1        D2        D3
           A6           0.16077
           A7           0.00051   0.13235
           D1           0.00000   0.00000   0.00230
           D2          -0.00058   0.00272   0.00000   0.00240
           D3           0.00058  -0.00272   0.00000  -0.00010   0.00240
 ITU=  1  0
 Use linear search instead of GDIIS.
     Eigenvalues ---    0.00230   0.10991   0.11390   0.12790   0.16000
     Eigenvalues ---    0.16000   0.16694   0.35317   0.35482   0.36437
     Eigenvalues ---    0.493831000.000001000.000001000.000001000.00000
 RFO step:  Lambda=-1.42148119D-05 EMin= 2.29999998D-03
 Quartic linear search produced a step of  0.17843.
 Iteration  1 RMS(Cart)=  0.00594242 RMS(Int)=  0.00003983
 Iteration  2 RMS(Cart)=  0.00003511 RMS(Int)=  0.00000404
 Iteration  3 RMS(Cart)=  0.00000000 RMS(Int)=  0.00000404
 Iteration  1 RMS(Cart)=  0.00000000 RMS(Int)=  0.00000000
 Variable       Old X    -DE/DX   Delta X   Delta X   Delta X     New X
                                 (Linear)    (Quad)   (Total)
    R1        2.05277  -0.00025   0.00106  -0.00176  -0.00070   2.05207
    R2        2.05693  -0.00024   0.00095  -0.00163  -0.00068   2.05625
    R3        2.05693  -0.00024   0.00095  -0.00163  -0.00068   2.05625
    R4        3.59048  -0.08150   0.00000   0.00000   0.00000   3.59048
    R5        1.85121  -0.00086  -0.00288   0.00047  -0.00242   1.84879
    A1        2.01761   0.00017   0.00042   0.00058   0.00100   2.01860
    A2        2.01761   0.00017   0.00042   0.00058   0.00100   2.01861
    A3        1.71762  -0.00082   0.00046  -0.00665  -0.00619   1.71142
    A4        2.03494   0.00012   0.00077   0.00068   0.00144   2.03638
    A5        1.80563   0.00007  -0.00141   0.00185   0.00044   1.80607
    A6        1.80564   0.00007  -0.00141   0.00185   0.00043   1.80607
    A7        1.76552   0.00163   0.00866   0.00442   0.01308   1.77860
    D1        3.14151   0.00000   0.00000   0.00002   0.00003   3.14153
    D2       -1.06509  -0.00010   0.00019  -0.00116  -0.00097  -1.06606
    D3        1.06492   0.00010  -0.00019   0.00120   0.00102   1.06594
         Item               Value     Threshold  Converged?
 Maximum Force            0.001635     0.000450     NO 
 RMS     Force            0.000558     0.000300     NO 
 Maximum Displacement     0.016377     0.001800     NO 
 RMS     Displacement     0.005936     0.001200     NO 
 Predicted change in Energy=-1.506498D-05
 GradGradGradGradGradGradGradGradGradGradGradGradGradGradGradGradGradGrad

                          Input orientation:                          
 ---------------------------------------------------------------------
 Center     Atomic      Atomic             Coordinates (Angstroms)
 Number     Number       Type             X           Y           Z
 ---------------------------------------------------------------------
      1          6           0        0.933083   -0.008502    0.000001
      2          1           0        1.146333    1.056262   -0.000109
      3          1           0        1.157141   -0.533783    0.926219
      4          1           0        1.157156   -0.533977   -0.926105
      5          8           0       -0.963827    0.099809   -0.000020
      6          1           0       -1.219909   -0.844421    0.000019
 ---------------------------------------------------------------------
                    Distance matrix (angstroms):
                    1          2          3          4          5
     1  C    0.000000
     2  H    1.085908   0.000000
     3  H    1.088119   1.840229   0.000000
     4  H    1.088120   1.840230   1.852324   0.000000
     5  O    1.900000   2.316804   2.399555   2.399560   0.000000
     6  H    2.309575   3.035078   2.569963   2.569926   0.978339
                    6
     6  H    0.000000
 Stoichiometry    CH4O
 Framework group  C1[X(CH4O)]
 Deg. of freedom    12
 Full point group                 C1      NOp   1
 Largest Abelian subgroup         C1      NOp   1
 Largest concise Abelian subgroup C1      NOp   1
                         Standard orientation:                         
 ---------------------------------------------------------------------
 Center     Atomic      Atomic             Coordinates (Angstroms)
 Number     Number       Type             X           Y           Z
 ---------------------------------------------------------------------
      1          6           0        0.925841   -0.013650    0.000008
      2          1           0        1.151925    1.048463   -0.000102
      3          1           0        1.143545   -0.541597    0.926227
      4          1           0        1.143557   -0.541791   -0.926098
      5          8           0       -0.969624    0.117544   -0.000013
      6          1           0       -1.237082   -0.823527    0.000026
 ---------------------------------------------------------------------
 Rotational constants (GHZ):    118.0170873     15.5738628     15.1880590
 Standard basis: 6-31+G (6D, 7F)
 There are    34 symmetry adapted cartesian basis functions of A   symmetry.
 There are    34 symmetry adapted basis functions of A   symmetry.
    34 basis functions,    68 primitive gaussians,    34 cartesian basis functions
     9 alpha electrons        9 beta electrons
       nuclear repulsion energy        34.6330660480 Hartrees.
 NAtoms=    6 NActive=    6 NUniq=    6 SFac= 1.00D+00 NAtFMM=   60 NAOKFM=F Big=F
 Integral buffers will be    131072 words long.
 Raffenetti 2 integral format.
 Two-electron integral symmetry is turned on.
 One-electron integrals computed using PRISM.
 NBasis=    34 RedAO= T EigKep=  1.02D-02  NBF=    34
 NBsUse=    34 1.00D-06 EigRej= -1.00D+00 NBFU=    34
 Initial guess from the checkpoint file:  "moh-xF-1.9.chk"
 B after Tr=     0.000000    0.000000    0.000000
         Rot=    1.000000    0.000001    0.000002    0.000122 Ang=   0.01 deg.
 Keep R1 ints in memory in canonical form, NReq=1060842.
 Requested convergence on RMS density matrix=1.00D-08 within 128 cycles.
 Requested convergence on MAX density matrix=1.00D-06.
 Requested convergence on             energy=1.00D-06.
 No special actions if energy rises.
 SCF Done:  E(RBMK) =  -115.567697938     A.U. after    8 cycles
            NFock=  8  Conv=0.49D-08     -V/T= 2.0088
 Calling FoFJK, ICntrl=      2127 FMM=F ISym2X=0 I1Cent= 0 IOpClX= 0 NMat=1 NMatS=1 NMatT=0.
 ***** Axes restored to original set *****
 -------------------------------------------------------------------
 Center     Atomic                   Forces (Hartrees/Bohr)
 Number     Number              X              Y              Z
 -------------------------------------------------------------------
      1        6          -0.081394278    0.004503313   -0.000000830
      2        1          -0.000188227    0.000031690   -0.000000005
      3        1           0.000045020   -0.000005142   -0.000040617
      4        1           0.000044792   -0.000005108    0.000040582
      5        8           0.081662831   -0.004355995    0.000000696
      6        1          -0.000170138   -0.000168758    0.000000174
 -------------------------------------------------------------------
 Cartesian Forces:  Max     0.081662831 RMS     0.027216419

 GradGradGradGradGradGradGradGradGradGradGradGradGradGradGradGradGradGrad
 Berny optimization.
 Using GEDIIS/GDIIS optimizer.
 FormGI is forming the generalized inverse of G from B-inverse, IUseBI=4.
 Internal  Forces:  Max     0.081626240 RMS     0.021076252
 Search for a local minimum.
 Step number   3 out of a maximum of   25
 All quantities printed in internal units (Hartrees-Bohrs-Radians)
 Mixed Optimization -- En-DIIS/RFO-DIIS
 Swapping is turned off.
 Update second derivatives using D2CorX and points    1    2    3
 DE= -1.74D-05 DEPred=-1.51D-05 R= 1.15D+00
 TightC=F SS=  1.41D+00  RLast= 1.49D-02 DXNew= 5.0454D-01 4.4802D-02
 Trust test= 1.15D+00 RLast= 1.49D-02 DXMaxT set to 3.00D-01
 The second derivative matrix:
                          R1        R2        R3        R4        R5
           R1           0.36013
           R2           0.00343   0.35617
           R3           0.00343   0.00299   0.35616
           R4           0.00456   0.00422   0.00422   0.11170
           R5          -0.00350  -0.00450  -0.00450  -0.01459   0.51944
           A1          -0.00066  -0.00047  -0.00047   0.00027   0.00127
           A2          -0.00066  -0.00047  -0.00047   0.00027   0.00127
           A3           0.00269   0.00192   0.00192   0.00496  -0.02265
           A4           0.00092   0.00101   0.00101   0.00078   0.00015
           A5          -0.00099  -0.00096  -0.00096  -0.00335   0.00881
           A6          -0.00099  -0.00096  -0.00096  -0.00335   0.00879
           A7           0.00110   0.00277   0.00277   0.01009   0.00110
           D1           0.00000   0.00000   0.00000   0.00000   0.00000
           D2           0.00150   0.00133   0.00133  -0.00011   0.00065
           D3          -0.00150  -0.00133  -0.00133   0.00011  -0.00064
                          A1        A2        A3        A4        A5
           A1           0.15987
           A2          -0.00013   0.15987
           A3           0.00151   0.00151   0.14875
           A4          -0.00040  -0.00040   0.00464   0.15936
           A5          -0.00023  -0.00023  -0.00024  -0.00116   0.16129
           A6          -0.00023  -0.00023  -0.00025  -0.00116   0.00129
           A7          -0.00277  -0.00277   0.03296  -0.00447  -0.00836
           D1           0.00000   0.00000   0.00000   0.00000   0.00000
           D2          -0.00028  -0.00028   0.00206  -0.00026  -0.00040
           D3           0.00027   0.00027  -0.00206   0.00026   0.00039
                          A6        A7        D1        D2        D3
           A6           0.16130
           A7          -0.00833   0.12725
           D1           0.00000  -0.00001   0.00230
           D2          -0.00039  -0.00241   0.00000   0.00244
           D3           0.00039   0.00240   0.00000  -0.00014   0.00244
 ITU=  1  1  0
     Eigenvalues ---    0.00230   0.09724   0.11413   0.11528   0.16000
     Eigenvalues ---    0.16001   0.17481   0.35317   0.35475   0.36437
     Eigenvalues ---    0.521551000.000001000.000001000.000001000.00000
 En-DIIS/RFO-DIIS IScMMF=        0 using points:     3    2
 RFO step:  Lambda=-2.11435216D-04.
 DidBck=F Rises=F RFO-DIIS coefs:    1.18903   -0.18903
 Iteration  1 RMS(Cart)=  0.00192238 RMS(Int)=  0.00000291
 Iteration  2 RMS(Cart)=  0.00000260 RMS(Int)=  0.00000055
 Iteration  3 RMS(Cart)=  0.00000000 RMS(Int)=  0.00000055
 Iteration  1 RMS(Cart)=  0.00000000 RMS(Int)=  0.00000000
 Variable       Old X    -DE/DX   Delta X   Delta X   Delta X     New X
                                 (Linear)    (Quad)   (Total)
    R1        2.05207   0.00000  -0.00013   0.00016   0.00003   2.05210
    R2        2.05625  -0.00003  -0.00013   0.00006  -0.00006   2.05618
    R3        2.05625  -0.00003  -0.00013   0.00006  -0.00006   2.05618
    R4        3.59048  -0.08163   0.00000   0.00000   0.00000   3.59048
    R5        1.84879   0.00022  -0.00046   0.00071   0.00026   1.84905
    A1        2.01860   0.00005   0.00019   0.00015   0.00034   2.01894
    A2        2.01861   0.00005   0.00019   0.00015   0.00034   2.01895
    A3        1.71142  -0.00039  -0.00117  -0.00200  -0.00317   1.70825
    A4        2.03638  -0.00002   0.00027  -0.00010   0.00017   2.03655
    A5        1.80607   0.00012   0.00008   0.00082   0.00090   1.80697
    A6        1.80607   0.00012   0.00008   0.00082   0.00090   1.80698
    A7        1.77860   0.00020   0.00247   0.00002   0.00249   1.78108
    D1        3.14153   0.00000   0.00000   0.00003   0.00003   3.14157
    D2       -1.06606  -0.00004  -0.00018  -0.00027  -0.00045  -1.06651
    D3        1.06594   0.00004   0.00019   0.00033   0.00052   1.06646
         Item               Value     Threshold  Converged?
 Maximum Force            0.000389     0.000450     YES
 RMS     Force            0.000142     0.000300     YES
 Maximum Displacement     0.004257     0.001800     NO 
 RMS     Displacement     0.001923     0.001200     NO 
 Predicted change in Energy=-1.043164D-06
 GradGradGradGradGradGradGradGradGradGradGradGradGradGradGradGradGradGrad

                          Input orientation:                          
 ---------------------------------------------------------------------
 Center     Atomic      Atomic             Coordinates (Angstroms)
 Number     Number       Type             X           Y           Z
 ---------------------------------------------------------------------
      1          6           0        0.933765   -0.009110   -0.000001
      2          1           0        1.144080    1.056254   -0.000105
      3          1           0        1.158582   -0.533964    0.926237
      4          1           0        1.158605   -0.534151   -0.926127
      5          8           0       -0.963100    0.099986   -0.000032
      6          1           0       -1.221956   -0.843627    0.000033
 ---------------------------------------------------------------------
                    Distance matrix (angstroms):
                    1          2          3          4          5
     1  C    0.000000
     2  H    1.085925   0.000000
     3  H    1.088085   1.840411   0.000000
     4  H    1.088085   1.840412   1.852363   0.000000
     5  O    1.900000   2.314013   2.400292   2.400294   0.000000
     6  H    2.311613   3.034415   2.573073   2.573056   0.978474
                    6
     6  H    0.000000
 Stoichiometry    CH4O
 Framework group  C1[X(CH4O)]
 Deg. of freedom    12
 Full point group                 C1      NOp   1
 Largest Abelian subgroup         C1      NOp   1
 Largest concise Abelian subgroup C1      NOp   1
                         Standard orientation:                         
 ---------------------------------------------------------------------
 Center     Atomic      Atomic             Coordinates (Angstroms)
 Number     Number       Type             X           Y           Z
 ---------------------------------------------------------------------
      1          6           0        0.926052   -0.013700    0.000012
      2          1           0        1.148679    1.049159   -0.000093
      3          1           0        1.144781   -0.541121    0.926249
      4          1           0        1.144801   -0.541307   -0.926114
      5          8           0       -0.969424    0.117336   -0.000020
      6          1           0       -1.239181   -0.823219    0.000046
 ---------------------------------------------------------------------
 Rotational constants (GHZ):    118.0332563     15.5727626     15.1873471
 Standard basis: 6-31+G (6D, 7F)
 There are    34 symmetry adapted cartesian basis functions of A   symmetry.
 There are    34 symmetry adapted basis functions of A   symmetry.
    34 basis functions,    68 primitive gaussians,    34 cartesian basis functions
     9 alpha electrons        9 beta electrons
       nuclear repulsion energy        34.6319921186 Hartrees.
 NAtoms=    6 NActive=    6 NUniq=    6 SFac= 1.00D+00 NAtFMM=   60 NAOKFM=F Big=F
 Integral buffers will be    131072 words long.
 Raffenetti 2 integral format.
 Two-electron integral symmetry is turned on.
 One-electron integrals computed using PRISM.
 NBasis=    34 RedAO= T EigKep=  1.02D-02  NBF=    34
 NBsUse=    34 1.00D-06 EigRej= -1.00D+00 NBFU=    34
 Initial guess from the checkpoint file:  "moh-xF-1.9.chk"
 B after Tr=     0.000000    0.000000    0.000000
         Rot=    1.000000    0.000001    0.000002   -0.000138 Ang=   0.02 deg.
 Keep R1 ints in memory in canonical form, NReq=1060842.
 Requested convergence on RMS density matrix=1.00D-08 within 128 cycles.
 Requested convergence on MAX density matrix=1.00D-06.
 Requested convergence on             energy=1.00D-06.
 No special actions if energy rises.
 SCF Done:  E(RBMK) =  -115.567699030     A.U. after    8 cycles
            NFock=  8  Conv=0.15D-08     -V/T= 2.0088
 Calling FoFJK, ICntrl=      2127 FMM=F ISym2X=0 I1Cent= 0 IOpClX= 0 NMat=1 NMatS=1 NMatT=0.
 ***** Axes restored to original set *****
 -------------------------------------------------------------------
 Center     Atomic                   Forces (Hartrees/Bohr)
 Number     Number              X              Y              Z
 -------------------------------------------------------------------
      1        6          -0.081500664    0.004644373   -0.000001328
      2        1          -0.000026849   -0.000012213   -0.000000003
      3        1           0.000019203   -0.000011363   -0.000017960
      4        1           0.000018969   -0.000011358    0.000017937
      5        8           0.081506577   -0.004546447    0.000001179
      6        1          -0.000017236   -0.000062992    0.000000175
 -------------------------------------------------------------------
 Cartesian Forces:  Max     0.081506577 RMS     0.027211035

 GradGradGradGradGradGradGradGradGradGradGradGradGradGradGradGradGradGrad
 Berny optimization.
 Using GEDIIS/GDIIS optimizer.
 FormGI is forming the generalized inverse of G from B-inverse, IUseBI=4.
 Internal  Forces:  Max     0.081627459 RMS     0.021076149
 Search for a local minimum.
 Step number   4 out of a maximum of   25
 All quantities printed in internal units (Hartrees-Bohrs-Radians)
 Mixed Optimization -- En-DIIS/RFO-DIIS
 Swapping is turned off.
 Update second derivatives using D2CorX and points    1    2    3    4
 DE= -1.09D-06 DEPred=-1.04D-06 R= 1.05D+00
 TightC=F SS=  1.41D+00  RLast= 4.32D-03 DXNew= 5.0454D-01 1.2974D-02
 Trust test= 1.05D+00 RLast= 4.32D-03 DXMaxT set to 3.00D-01
 The second derivative matrix:
                          R1        R2        R3        R4        R5
           R1           0.36137
           R2           0.00420   0.35660
           R3           0.00420   0.00343   0.35660
           R4           0.00486   0.00441   0.00441   0.11177
           R5           0.00032  -0.00004  -0.00004  -0.01420   0.49806
           A1          -0.00094  -0.00089  -0.00088   0.00026   0.00103
           A2          -0.00094  -0.00089  -0.00088   0.00026   0.00103
           A3          -0.00047  -0.00137  -0.00138   0.00459  -0.00188
           A4           0.00156   0.00149   0.00149   0.00093  -0.00061
           A5           0.00047   0.00086   0.00087  -0.00326  -0.00027
           A6           0.00046   0.00086   0.00086  -0.00326  -0.00027
           A7           0.00050   0.00121   0.00122   0.01022   0.00305
           D1           0.00000   0.00000   0.00000   0.00000   0.00000
           D2           0.00276   0.00272   0.00272   0.00003  -0.00172
           D3          -0.00275  -0.00272  -0.00272  -0.00003   0.00172
                          A1        A2        A3        A4        A5
           A1           0.16028
           A2           0.00028   0.16028
           A3           0.00096   0.00097   0.12651
           A4          -0.00026  -0.00026   0.00437   0.15948
           A5          -0.00067  -0.00068   0.01149  -0.00131   0.15641
           A6          -0.00066  -0.00067   0.01141  -0.00131  -0.00357
           A7          -0.00117  -0.00118   0.02975  -0.00315  -0.01017
           D1           0.00000   0.00000   0.00001   0.00000   0.00000
           D2          -0.00089  -0.00089   0.00585  -0.00033  -0.00126
           D3           0.00089   0.00089  -0.00582   0.00033   0.00126
                          A6        A7        D1        D2        D3
           A6           0.15645
           A7          -0.01010   0.13284
           D1           0.00000  -0.00001   0.00230
           D2          -0.00127  -0.00439   0.00000   0.00305
           D3           0.00126   0.00437   0.00000  -0.00074   0.00304
 ITU=  1  1  1  0
     Eigenvalues ---    0.00230   0.09110   0.11422   0.11499   0.15983
     Eigenvalues ---    0.16000   0.16064   0.35317   0.35473   0.36669
     Eigenvalues ---    0.498101000.000001000.000001000.000001000.00000
 En-DIIS/RFO-DIIS IScMMF=        0 using points:     4    3    2
 RFO step:  Lambda=-2.10745246D-04.
 DidBck=F Rises=F RFO-DIIS coefs:    1.33299   -0.39465    0.06167
 Iteration  1 RMS(Cart)=  0.00038698 RMS(Int)=  0.00000022
 Iteration  2 RMS(Cart)=  0.00000008 RMS(Int)=  0.00000021
 Iteration  1 RMS(Cart)=  0.00000000 RMS(Int)=  0.00000000
 Variable       Old X    -DE/DX   Delta X   Delta X   Delta X     New X
                                 (Linear)    (Quad)   (Total)
    R1        2.05210  -0.00001   0.00005  -0.00008  -0.00003   2.05207
    R2        2.05618  -0.00001   0.00002  -0.00005  -0.00003   2.05616
    R3        2.05618  -0.00001   0.00002  -0.00005  -0.00003   2.05616
    R4        3.59048  -0.08163   0.00000   0.00000   0.00000   3.59048
    R5        1.84905   0.00008   0.00023  -0.00007   0.00017   1.84922
    A1        2.01894   0.00001   0.00005  -0.00002   0.00003   2.01897
    A2        2.01895   0.00001   0.00005  -0.00002   0.00003   2.01898
    A3        1.70825  -0.00008  -0.00067  -0.00002  -0.00069   1.70756
    A4        2.03655  -0.00002  -0.00003  -0.00010  -0.00013   2.03641
    A5        1.80697   0.00005   0.00027   0.00012   0.00039   1.80737
    A6        1.80698   0.00005   0.00027   0.00012   0.00039   1.80737
    A7        1.78108  -0.00002   0.00002  -0.00005  -0.00003   1.78105
    D1        3.14157   0.00000   0.00001   0.00003   0.00004  -3.14158
    D2       -1.06651  -0.00001  -0.00009   0.00003  -0.00006  -1.06657
    D3        1.06646   0.00001   0.00011   0.00002   0.00013   1.06659
         Item               Value     Threshold  Converged?
 Maximum Force            0.000081     0.000450     YES
 RMS     Force            0.000037     0.000300     YES
 Maximum Displacement     0.001006     0.001800     YES
 RMS     Displacement     0.000387     0.001200     YES
 Predicted change in Energy=-5.259757D-08
 Optimization completed.
    -- Stationary point found.
                           ----------------------------
                           !   Optimized Parameters   !
                           ! (Angstroms and Degrees)  !
 --------------------------                            --------------------------
 ! Name  Definition              Value          Derivative Info.                !
 --------------------------------------------------------------------------------
 ! R1    R(1,2)                  1.0859         -DE/DX =    0.0                 !
 ! R2    R(1,3)                  1.0881         -DE/DX =    0.0                 !
 ! R3    R(1,4)                  1.0881         -DE/DX =    0.0                 !
 ! R4    R(1,5)                  1.9            -DE/DX =   -0.0816              !
 ! R5    R(5,6)                  0.9785         -DE/DX =    0.0001              !
 ! A1    A(2,1,3)              115.677          -DE/DX =    0.0                 !
 ! A2    A(2,1,4)              115.677          -DE/DX =    0.0                 !
 ! A3    A(2,1,5)               97.8756         -DE/DX =   -0.0001              !
 ! A4    A(3,1,4)              116.6855         -DE/DX =    0.0                 !
 ! A5    A(3,1,5)              103.5319         -DE/DX =    0.0                 !
 ! A6    A(4,1,5)              103.532          -DE/DX =    0.0                 !
 ! A7    A(1,5,6)              102.0486         -DE/DX =    0.0                 !
 ! D1    D(2,1,5,6)           -180.0016         -DE/DX =    0.0                 !
 ! D2    D(3,1,5,6)            -61.1067         -DE/DX =    0.0                 !
 ! D3    D(4,1,5,6)             61.1035         -DE/DX =    0.0                 !
 --------------------------------------------------------------------------------
 GradGradGradGradGradGradGradGradGradGradGradGradGradGradGradGradGradGrad

                          Input orientation:                          
 ---------------------------------------------------------------------
 Center     Atomic      Atomic             Coordinates (Angstroms)
 Number     Number       Type             X           Y           Z
 ---------------------------------------------------------------------
      1          6           0        0.933765   -0.009110   -0.000001
      2          1           0        1.144080    1.056254   -0.000105
      3          1           0        1.158582   -0.533964    0.926237
      4          1           0        1.158605   -0.534151   -0.926127
      5          8           0       -0.963100    0.099986   -0.000032
      6          1           0       -1.221956   -0.843627    0.000033
 ---------------------------------------------------------------------
                    Distance matrix (angstroms):
                    1          2          3          4          5
     1  C    0.000000
     2  H    1.085925   0.000000
     3  H    1.088085   1.840411   0.000000
     4  H    1.088085   1.840412   1.852363   0.000000
     5  O    1.900000   2.314013   2.400292   2.400294   0.000000
     6  H    2.311613   3.034415   2.573073   2.573056   0.978474
                    6
     6  H    0.000000
 Stoichiometry    CH4O
 Framework group  C1[X(CH4O)]
 Deg. of freedom    12
 Full point group                 C1      NOp   1
 Largest Abelian subgroup         C1      NOp   1
 Largest concise Abelian subgroup C1      NOp   1
                         Standard orientation:                         
 ---------------------------------------------------------------------
 Center     Atomic      Atomic             Coordinates (Angstroms)
 Number     Number       Type             X           Y           Z
 ---------------------------------------------------------------------
      1          6           0        0.926052   -0.013700    0.000012
      2          1           0        1.148679    1.049159   -0.000093
      3          1           0        1.144781   -0.541121    0.926249
      4          1           0        1.144801   -0.541307   -0.926114
      5          8           0       -0.969424    0.117336   -0.000020
      6          1           0       -1.239181   -0.823219    0.000046
 ---------------------------------------------------------------------
 Rotational constants (GHZ):    118.0332563     15.5727626     15.1873471

 **********************************************************************

            Population analysis using the SCF density.

 **********************************************************************

 Orbital symmetries:
       Occupied  (A) (A) (A) (A) (A) (A) (A) (A) (A)
       Virtual   (A) (A) (A) (A) (A) (A) (A) (A) (A) (A) (A) (A)
                 (A) (A) (A) (A) (A) (A) (A) (A) (A) (A) (A) (A)
                 (A)
 The electronic state is 1-A.
 Alpha  occ. eigenvalues --  -19.54772 -10.55044  -1.03578  -0.77765  -0.50828
 Alpha  occ. eigenvalues --   -0.50045  -0.45418  -0.36500  -0.32252
 Alpha virt. eigenvalues --   -0.01481   0.04786   0.08464   0.08862   0.10583
 Alpha virt. eigenvalues --    0.18925   0.21763   0.22416   0.23943   0.26862
 Alpha virt. eigenvalues --    0.29209   0.29798   0.38498   0.66724   0.68285
 Alpha virt. eigenvalues --    0.69217   1.05266   1.05921   1.07769   1.15616
 Alpha virt. eigenvalues --    1.23071   1.28737   1.33646   1.37524   1.78914
          Condensed to atoms (all electrons):
               1          2          3          4          5          6
     1  C    5.132829   0.380033   0.364024   0.364024   0.162006  -0.007041
     2  H    0.380033   0.456498  -0.023609  -0.023609  -0.026295   0.002195
     3  H    0.364024  -0.023609   0.504411  -0.029522  -0.024721  -0.000917
     4  H    0.364024  -0.023609  -0.029522   0.504412  -0.024720  -0.000917
     5  O    0.162006  -0.026295  -0.024721  -0.024720   8.386951   0.166283
     6  H   -0.007041   0.002195  -0.000917  -0.000917   0.166283   0.460469
 Mulliken charges:
               1
     1  C   -0.395875
     2  H    0.234786
     3  H    0.210333
     4  H    0.210332
     5  O   -0.639504
     6  H    0.379928
 Sum of Mulliken charges =   0.00000
 Mulliken charges with hydrogens summed into heavy atoms:
               1
     1  C    0.259576
     5  O   -0.259576
 Electronic spatial extent (au):  <R**2>=            108.8391
 Charge=              0.0000 electrons
 Dipole moment (field-independent basis, Debye):
    X=              2.6510    Y=             -2.0306    Z=              0.0002  Tot=              3.3394
 Quadrupole moment (field-independent basis, Debye-Ang):
   XX=            -13.1853   YY=            -12.0399   ZZ=            -13.9069
   XY=              2.8527   XZ=             -0.0002   YZ=             -0.0001
 Traceless Quadrupole moment (field-independent basis, Debye-Ang):
   XX=             -0.1413   YY=              1.0041   ZZ=             -0.8629
   XY=              2.8527   XZ=             -0.0002   YZ=             -0.0001
 Octapole moment (field-independent basis, Debye-Ang**2):
  XXX=             -1.2151  YYY=             -0.6681  ZZZ=              0.0004  XYY=             -0.7948
  XXY=             -3.5770  XXZ=              0.0002  XZZ=              1.2547  YZZ=             -1.3148
  YYZ=             -0.0002  XYZ=              0.0001
 Hexadecapole moment (field-independent basis, Debye-Ang**3):
 XXXX=            -94.1621 YYYY=            -20.1221 ZZZZ=            -20.3815 XXXY=              5.7363
 XXXZ=             -0.0008 YYYX=              3.9901 YYYZ=              0.0000 ZZZX=             -0.0003
 ZZZY=              0.0000 XXYY=            -17.0617 XXZZ=            -19.4192 YYZZ=             -6.9314
 XXYZ=             -0.0001 YYXZ=             -0.0006 ZZXY=             -0.3529
 N-N= 3.463199211864D+01 E-N=-3.401903981697D+02  KE= 1.145618665132D+02
 1\1\GINC-CASCADE-012\FOpt\RBMK\6-31+G\C1H4O1\FARRUGMA\05-Jul-2022\0\\#
  opt=modredundant 6-31+g geom=connectivity bmk\\Title Card Required\\0
 ,1\C,0.9337654689,-0.0091101487,-0.0000006364\H,1.1440803355,1.0562540
 634,-0.0001050205\H,1.1585818218,-0.5339644156,0.9262366487\H,1.158604
 6006,-0.5341510019,-0.9261266406\O,-0.9630998377,0.0999862749,-0.00003
 22253\H,-1.221956469,-0.8436267421,0.0000333041\\Version=ES64L-G09RevD
 .01\State=1-A\HF=-115.567699\RMSD=1.518e-09\RMSF=2.721e-02\Dipole=1.05
 21647,-0.7867858,0.0000702\Quadrupole=-0.1539851,0.7954953,-0.6415101,
 2.1105172,-0.0001479,-0.0000791\PG=C01 [X(C1H4O1)]\\@


 There are more things in heaven and earth, Horatio,
 than are dreamt of in your philosophy.
                   -- Hamlet, Act I, Scene 5
 Job cpu time:       0 days  0 hours  0 minutes 13.1 seconds.
 File lengths (MBytes):  RWF=     37 Int=      0 D2E=      0 Chk=      1 Scr=      1
 Normal termination of Gaussian 09 at Tue Jul  5 14:41:37 2022.
