 Entering Gaussian System, Link 0=g09
 Input=moh-x0-1.7.com
 Output=moh-x0-1.7.log
 Initial command:
 /hits/fast/mbm/software/gaussian/g09d1/g09/l1.exe /hits/fast/mbm/farrugma/gaussian_scratch/Gau-17868.inp -scrdir=/hits/fast/mbm/farrugma/gaussian_scratch/
 Entering Link 1 = /hits/fast/mbm/software/gaussian/g09d1/g09/l1.exe PID=     17869.
  
 Copyright (c) 1988,1990,1992,1993,1995,1998,2003,2009,2013,
            Gaussian, Inc.  All Rights Reserved.
  
 This is part of the Gaussian(R) 09 program.  It is based on
 the Gaussian(R) 03 system (copyright 2003, Gaussian, Inc.),
 the Gaussian(R) 98 system (copyright 1998, Gaussian, Inc.),
 the Gaussian(R) 94 system (copyright 1995, Gaussian, Inc.),
 the Gaussian 92(TM) system (copyright 1992, Gaussian, Inc.),
 the Gaussian 90(TM) system (copyright 1990, Gaussian, Inc.),
 the Gaussian 88(TM) system (copyright 1988, Gaussian, Inc.),
 the Gaussian 86(TM) system (copyright 1986, Carnegie Mellon
 University), and the Gaussian 82(TM) system (copyright 1983,
 Carnegie Mellon University). Gaussian is a federally registered
 trademark of Gaussian, Inc.
  
 This software contains proprietary and confidential information,
 including trade secrets, belonging to Gaussian, Inc.
  
 This software is provided under written license and may be
 used, copied, transmitted, or stored only in accord with that
 written license.
  
 The following legend is applicable only to US Government
 contracts under FAR:
  
                    RESTRICTED RIGHTS LEGEND
  
 Use, reproduction and disclosure by the US Government is
 subject to restrictions as set forth in subparagraphs (a)
 and (c) of the Commercial Computer Software - Restricted
 Rights clause in FAR 52.227-19.
  
 Gaussian, Inc.
 340 Quinnipiac St., Bldg. 40, Wallingford CT 06492
  
  
 ---------------------------------------------------------------
 Warning -- This program may not be used in any manner that
 competes with the business of Gaussian, Inc. or will provide
 assistance to any competitor of Gaussian, Inc.  The licensee
 of this program is prohibited from giving any competitor of
 Gaussian, Inc. access to this program.  By using this program,
 the user acknowledges that Gaussian, Inc. is engaged in the
 business of creating and licensing software in the field of
 computational chemistry and represents and warrants to the
 licensee that it is not a competitor of Gaussian, Inc. and that
 it will not use this program in any manner prohibited above.
 ---------------------------------------------------------------
  

 Cite this work as:
 Gaussian 09, Revision D.01,
 M. J. Frisch, G. W. Trucks, H. B. Schlegel, G. E. Scuseria, 
 M. A. Robb, J. R. Cheeseman, G. Scalmani, V. Barone, B. Mennucci, 
 G. A. Petersson, H. Nakatsuji, M. Caricato, X. Li, H. P. Hratchian, 
 A. F. Izmaylov, J. Bloino, G. Zheng, J. L. Sonnenberg, M. Hada, 
 M. Ehara, K. Toyota, R. Fukuda, J. Hasegawa, M. Ishida, T. Nakajima, 
 Y. Honda, O. Kitao, H. Nakai, T. Vreven, J. A. Montgomery, Jr., 
 J. E. Peralta, F. Ogliaro, M. Bearpark, J. J. Heyd, E. Brothers, 
 K. N. Kudin, V. N. Staroverov, T. Keith, R. Kobayashi, J. Normand, 
 K. Raghavachari, A. Rendell, J. C. Burant, S. S. Iyengar, J. Tomasi, 
 M. Cossi, N. Rega, J. M. Millam, M. Klene, J. E. Knox, J. B. Cross, 
 V. Bakken, C. Adamo, J. Jaramillo, R. Gomperts, R. E. Stratmann, 
 O. Yazyev, A. J. Austin, R. Cammi, C. Pomelli, J. W. Ochterski, 
 R. L. Martin, K. Morokuma, V. G. Zakrzewski, G. A. Voth, 
 P. Salvador, J. J. Dannenberg, S. Dapprich, A. D. Daniels, 
 O. Farkas, J. B. Foresman, J. V. Ortiz, J. Cioslowski, 
 and D. J. Fox, Gaussian, Inc., Wallingford CT, 2013.
 
 ******************************************
 Gaussian 09:  ES64L-G09RevD.01 24-Apr-2013
                29-Jul-2022 
 ******************************************
 %chk=moh-x0-1.7.chk
 ----------------------------------------------------------------------
 # opt=(calcfc, modredundant) freq=(savenormalmodes, IntModes) 6-31+g g
 eom=(connectivity) bmk
 ----------------------------------------------------------------------
 1/10=4,14=-1,18=120,19=15,26=3,38=1,57=2/1,3;
 2/9=110,12=2,17=6,18=5,40=1/2;
 3/5=1,6=6,7=10,11=2,16=1,25=1,30=1,71=2,74=-34,140=1/1,2,3;
 4//1;
 5/5=2,38=5/2;
 8/6=4,10=90,11=11/1;
 11/6=1,8=1,9=11,15=111,16=1/1,2,10;
 10/6=1,13=1/2;
 6/7=2,8=2,9=2,10=2,28=1/1;
 7/10=1,18=20,25=1,92=1/1,2,3,16;
 1/10=4,14=-1,18=20,19=15,26=3/3(2);
 2/9=110/2;
 99//99;
 2/9=110/2;
 3/5=1,6=6,7=10,11=2,16=1,25=1,30=1,71=1,74=-34/1,2,3;
 4/5=5,16=3,69=1/1;
 5/5=2,38=5/2;
 7/92=1/1,2,3,16;
 1/14=-1,18=20,19=15,26=3/3(-5);
 2/9=110/2;
 6/7=2,8=2,9=2,10=2,19=2,28=1/1;
 99/9=1/99;
 -------------------
 Title Card Required
 -------------------
 Symbolic Z-matrix:
 Charge =  0 Multiplicity = 1
 C                     0.82196  -0.00303   0. 
 H                     1.04826   1.0562   -0.00011 
 H                     1.04858  -0.5287    0.9225 
 H                     1.0486   -0.5289   -0.92238 
 O                    -0.87431   0.1095   0. 
 H                    -1.08266  -0.85645   0. 
 
 The following ModRedundant input section has been read:
 B       1       5 F                                                           
 

 GradGradGradGradGradGradGradGradGradGradGradGradGradGradGradGradGradGrad
 Berny optimization.
 Initialization pass.
                           ----------------------------
                           !    Initial Parameters    !
                           ! (Angstroms and Degrees)  !
 --------------------------                            --------------------------
 ! Name  Definition              Value          Derivative Info.                !
 --------------------------------------------------------------------------------
 ! R1    R(1,2)                  1.0831         calculate D2E/DX2 analytically  !
 ! R2    R(1,3)                  1.0857         calculate D2E/DX2 analytically  !
 ! R3    R(1,4)                  1.0857         calculate D2E/DX2 analytically  !
 ! R4    R(1,5)                  1.7            frozen, calculate D2E/DX2 analyt!
 ! R5    R(5,6)                  0.9882         calculate D2E/DX2 analytically  !
 ! A1    A(2,1,3)              115.4661         calculate D2E/DX2 analytically  !
 ! A2    A(2,1,4)              115.466          calculate D2E/DX2 analytically  !
 ! A3    A(2,1,5)               98.2642         calculate D2E/DX2 analytically  !
 ! A4    A(3,1,4)              116.3464         calculate D2E/DX2 analytically  !
 ! A5    A(3,1,5)              103.9063         calculate D2E/DX2 analytically  !
 ! A6    A(4,1,5)              103.9077         calculate D2E/DX2 analytically  !
 ! A7    A(1,5,6)               98.3764         calculate D2E/DX2 analytically  !
 ! D1    D(2,1,5,6)            179.9941         calculate D2E/DX2 analytically  !
 ! D2    D(3,1,5,6)            -61.0871         calculate D2E/DX2 analytically  !
 ! D3    D(4,1,5,6)             61.0749         calculate D2E/DX2 analytically  !
 --------------------------------------------------------------------------------
 Trust Radius=3.00D-01 FncErr=1.00D-07 GrdErr=1.00D-06
 Number of steps in this run=     25 maximum allowed number of steps=    100.
 GradGradGradGradGradGradGradGradGradGradGradGradGradGradGradGradGradGrad

                          Input orientation:                          
 ---------------------------------------------------------------------
 Center     Atomic      Atomic             Coordinates (Angstroms)
 Number     Number       Type             X           Y           Z
 ---------------------------------------------------------------------
      1          6           0        0.821957   -0.003029    0.000000
      2          1           0        1.048257    1.056197   -0.000114
      3          1           0        1.048583   -0.528697    0.922498
      4          1           0        1.048596   -0.528898   -0.922380
      5          8           0       -0.874314    0.109503   -0.000001
      6          1           0       -1.082663   -0.856448    0.000002
 ---------------------------------------------------------------------
                    Distance matrix (angstroms):
                    1          2          3          4          5
     1  C    0.000000
     2  H    1.083130   0.000000
     3  H    1.085673   1.833876   0.000000
     4  H    1.085674   1.833876   1.844877   0.000000
     5  O    1.700000   2.143014   2.226170   2.226190   0.000000
     6  H    2.087080   2.863395   2.345342   2.345281   0.988165
                    6
     6  H    0.000000
 Stoichiometry    CH4O
 Framework group  C1[X(CH4O)]
 Deg. of freedom    12
 Full point group                 C1      NOp   1
 Largest Abelian subgroup         C1      NOp   1
 Largest concise Abelian subgroup C1      NOp   1
                         Standard orientation:                         
 ---------------------------------------------------------------------
 Center     Atomic      Atomic             Coordinates (Angstroms)
 Number     Number       Type             X           Y           Z
 ---------------------------------------------------------------------
      1          6           0        0.821863   -0.012819    0.000000
      2          1           0        1.060763    1.043636   -0.000114
      3          1           0        1.042211   -0.541149    0.922498
      4          1           0        1.042222   -0.541351   -0.922380
      5          8           0       -0.872948    0.119909   -0.000001
      6          1           0       -1.092788   -0.843492    0.000002
 ---------------------------------------------------------------------
 Rotational constants (GHZ):    117.6213066     19.1148140     18.5082652
 Standard basis: 6-31+G (6D, 7F)
 There are    34 symmetry adapted cartesian basis functions of A   symmetry.
 There are    34 symmetry adapted basis functions of A   symmetry.
    34 basis functions,    68 primitive gaussians,    34 cartesian basis functions
     9 alpha electrons        9 beta electrons
       nuclear repulsion energy        36.8060579270 Hartrees.
 NAtoms=    6 NActive=    6 NUniq=    6 SFac= 1.00D+00 NAtFMM=   60 NAOKFM=F Big=F
 Integral buffers will be    131072 words long.
 Raffenetti 2 integral format.
 Two-electron integral symmetry is turned on.
 One-electron integrals computed using PRISM.
 NBasis=    34 RedAO= T EigKep=  8.81D-03  NBF=    34
 NBsUse=    34 1.00D-06 EigRej= -1.00D+00 NBFU=    34
 ExpMin= 4.38D-02 ExpMax= 5.48D+03 ExpMxC= 8.25D+02 IAcc=2 IRadAn=         4 AccDes= 0.00D+00
 Harris functional with IExCor= 1009 and IRadAn=       4 diagonalized for initial guess.
 HarFok:  IExCor= 1009 AccDes= 0.00D+00 IRadAn=         4 IDoV= 1 UseB2=F ITyADJ=14
 ICtDFT=  3500011 ScaDFX=  1.000000  1.000000  1.000000  1.000000
 FoFCou: FMM=F IPFlag=           0 FMFlag=      100000 FMFlg1=           0
         NFxFlg=           0 DoJE=T BraDBF=F KetDBF=T FulRan=T
         wScrn=  0.000000 ICntrl=     500 IOpCl=  0 I1Cent=   200000004 NGrid=           0
         NMat0=    1 NMatS0=      1 NMatT0=    0 NMatD0=    1 NMtDS0=    0 NMtDT0=    0
 Petite list used in FoFCou.
 Keep R1 ints in memory in canonical form, NReq=1060842.
 Requested convergence on RMS density matrix=1.00D-08 within 128 cycles.
 Requested convergence on MAX density matrix=1.00D-06.
 Requested convergence on             energy=1.00D-06.
 No special actions if energy rises.
 SCF Done:  E(RBMK) =  -115.594606321     A.U. after    9 cycles
            NFock=  9  Conv=0.55D-08     -V/T= 2.0078
 DoSCS=F DFT=T ScalE2(SS,OS)=  1.000000  1.000000
 Range of M.O.s used for correlation:     1    34
 NBasis=    34 NAE=     9 NBE=     9 NFC=     0 NFV=     0
 NROrb=     34 NOA=     9 NOB=     9 NVA=    25 NVB=    25
 Symmetrizing basis deriv contribution to polar:
 IMax=3 JMax=2 DiffMx= 0.00D+00
 G2DrvN: will do     7 centers at a time, making    1 passes.
 Calling FoFCou, ICntrl=  3107 FMM=F I1Cent=   0 AccDes= 0.00D+00.
 End of G2Drv F.D. properties file   721 does not exist.
 End of G2Drv F.D. properties file   722 does not exist.
 End of G2Drv F.D. properties file   788 does not exist.
          IDoAtm=111111
          Differentiating once with respect to nuclear coordinates.
 Keep R1 ints in memory in canonical form, NReq=1038583.
          There are    21 degrees of freedom in the 1st order CPHF.  IDoFFX=6 NUNeed=     0.
     15 vectors produced by pass  0 Test12= 1.07D-15 4.76D-09 XBig12= 5.07D-02 8.61D-02.
 AX will form    15 AO Fock derivatives at one time.
     15 vectors produced by pass  1 Test12= 1.07D-15 4.76D-09 XBig12= 6.51D-03 2.51D-02.
     15 vectors produced by pass  2 Test12= 1.07D-15 4.76D-09 XBig12= 1.34D-04 3.81D-03.
     15 vectors produced by pass  3 Test12= 1.07D-15 4.76D-09 XBig12= 4.15D-07 1.82D-04.
     15 vectors produced by pass  4 Test12= 1.07D-15 4.76D-09 XBig12= 1.04D-09 7.80D-06.
     12 vectors produced by pass  5 Test12= 1.07D-15 4.76D-09 XBig12= 1.54D-12 3.46D-07.
      1 vectors produced by pass  6 Test12= 1.07D-15 4.76D-09 XBig12= 1.99D-15 1.20D-08.
 InvSVY:  IOpt=1 It=  1 EMax= 1.78D-15
 Solved reduced A of dimension    88 with    15 vectors.
 End of Minotr F.D. properties file   721 does not exist.
 End of Minotr F.D. properties file   722 does not exist.
 End of Minotr F.D. properties file   788 does not exist.

 **********************************************************************

            Population analysis using the SCF density.

 **********************************************************************

 Orbital symmetries:
       Occupied  (A) (A) (A) (A) (A) (A) (A) (A) (A)
       Virtual   (A) (A) (A) (A) (A) (A) (A) (A) (A) (A) (A) (A)
                 (A) (A) (A) (A) (A) (A) (A) (A) (A) (A) (A) (A)
                 (A)
 The electronic state is 1-A.
 Alpha  occ. eigenvalues --  -19.55261 -10.53414  -1.06102  -0.76783  -0.52362
 Alpha  occ. eigenvalues --   -0.50034  -0.45063  -0.38711  -0.32724
 Alpha virt. eigenvalues --    0.02567   0.04761   0.08522   0.08786   0.13101
 Alpha virt. eigenvalues --    0.19530   0.21805   0.22925   0.23139   0.26830
 Alpha virt. eigenvalues --    0.29111   0.30615   0.38959   0.67541   0.68024
 Alpha virt. eigenvalues --    0.69393   1.05478   1.05798   1.10256   1.14295
 Alpha virt. eigenvalues --    1.27495   1.29047   1.33442   1.38929   1.85467
          Condensed to atoms (all electrons):
               1          2          3          4          5          6
     1  C    5.167017   0.388840   0.368604   0.368601   0.127523  -0.012854
     2  H    0.388840   0.464378  -0.023211  -0.023211  -0.040932   0.004507
     3  H    0.368604  -0.023211   0.522134  -0.032472  -0.033205  -0.003064
     4  H    0.368601  -0.023211  -0.032472   0.522139  -0.033199  -0.003065
     5  O    0.127523  -0.040932  -0.033205  -0.033199   8.412774   0.172337
     6  H   -0.012854   0.004507  -0.003064  -0.003065   0.172337   0.461161
 Mulliken charges:
               1
     1  C   -0.407732
     2  H    0.229630
     3  H    0.201214
     4  H    0.201208
     5  O   -0.605298
     6  H    0.380978
 Sum of Mulliken charges =   0.00000
 Mulliken charges with hydrogens summed into heavy atoms:
               1
     1  C    0.224320
     5  O   -0.224320
 APT charges:
               1
     1  C   -0.926828
     2  H    0.413997
     3  H    0.385415
     4  H    0.385414
     5  O   -0.782605
     6  H    0.524608
 Sum of APT charges =   0.00000
 APT charges with hydrogens summed into heavy atoms:
               1
     1  C    0.257998
     5  O   -0.257998
 Electronic spatial extent (au):  <R**2>=             96.8464
 Charge=              0.0000 electrons
 Dipole moment (field-independent basis, Debye):
    X=              2.2026    Y=             -2.0304    Z=              0.0000  Tot=              2.9957
 Quadrupole moment (field-independent basis, Debye-Ang):
   XX=            -14.0080   YY=            -11.9028   ZZ=            -13.8334
   XY=              2.6312   XZ=              0.0000   YZ=              0.0000
 Traceless Quadrupole moment (field-independent basis, Debye-Ang):
   XX=             -0.7600   YY=              1.3453   ZZ=             -0.5853
   XY=              2.6312   XZ=              0.0000   YZ=              0.0000
 Octapole moment (field-independent basis, Debye-Ang**2):
  XXX=             -1.6143  YYY=             -0.7546  ZZZ=              0.0003  XYY=             -1.0060
  XXY=             -2.9294  XXZ=              0.0000  XZZ=              0.8403  YZZ=             -1.2277
  YYZ=             -0.0003  XYZ=              0.0000
 Hexadecapole moment (field-independent basis, Debye-Ang**3):
 XXXX=            -80.1861 YYYY=            -19.9620 ZZZZ=            -20.1637 XXXY=              4.4348
 XXXZ=             -0.0001 YYYX=              3.6527 YYYZ=              0.0000 ZZZX=              0.0003
 ZZZY=              0.0000 XXYY=            -15.0932 XXZZ=            -17.0439 YYZZ=             -6.8949
 XXYZ=              0.0000 YYXZ=             -0.0003 ZZXY=             -0.2209
 N-N= 3.680605792696D+01 E-N=-3.446204889319D+02  KE= 1.147001075878D+02
  Exact polarizability:   0.000   0.000   0.000   0.000   0.000   0.000
 Approx polarizability:  25.983  -0.643  18.465   0.000   0.000  15.505
 Calling FoFJK, ICntrl=    100147 FMM=F ISym2X=0 I1Cent= 0 IOpClX= 0 NMat=1 NMatS=1 NMatT=0.
 ***** Axes restored to original set *****
 -------------------------------------------------------------------
 Center     Atomic                   Forces (Hartrees/Bohr)
 Number     Number              X              Y              Z
 -------------------------------------------------------------------
      1        6          -0.079872641    0.011695749    0.000000357
      2        1           0.008667159    0.000730559    0.000000059
      3        1           0.006828059   -0.000393537    0.001226269
      4        1           0.006826459   -0.000393540   -0.001226109
      5        8           0.066784074   -0.023397966   -0.000000843
      6        1          -0.009233110    0.011758736    0.000000268
 -------------------------------------------------------------------
 Cartesian Forces:  Max     0.079872641 RMS     0.025733374
 FormGI is forming the generalized inverse of G from B-inverse, IUseBI=4.

 GradGradGradGradGradGradGradGradGradGradGradGradGradGradGradGradGradGrad
 Berny optimization.
 Internal  Forces:  Max     0.058205470 RMS     0.017120622
 Search for a local minimum.
 Step number   1 out of a maximum of   25
 All quantities printed in internal units (Hartrees-Bohrs-Radians)
 Mixed Optimization -- RFO/linear search
 Second derivative matrix not updated -- analytic derivatives used.
 The second derivative matrix:
                          R1        R2        R3        R4        R5
           R1           0.38239
           R2           0.00009   0.37450
           R3           0.00009   0.00021   0.37449
           R4           0.00241   0.00358   0.00358   0.11275
           R5          -0.00097   0.00057   0.00057  -0.00404   0.45852
           A1           0.00554   0.00748  -0.00608  -0.02355   0.00016
           A2           0.00554  -0.00608   0.00748  -0.02355   0.00016
           A3           0.00157  -0.00437  -0.00437   0.03826   0.00194
           A4          -0.00594   0.00737   0.00737  -0.02304   0.00051
           A5          -0.00424  -0.00444  -0.00436   0.03241  -0.00155
           A6          -0.00424  -0.00436  -0.00444   0.03241  -0.00155
           A7           0.00115   0.00008   0.00008   0.04715   0.01345
           D1           0.00000  -0.00514   0.00514   0.00000   0.00000
           D2           0.00524  -0.00004  -0.00430  -0.00158   0.00041
           D3          -0.00524   0.00430   0.00004   0.00158  -0.00041
                          A1        A2        A3        A4        A5
           A1           0.06199
           A2          -0.00196   0.06199
           A3          -0.03628  -0.03628   0.14153
           A4          -0.00081  -0.00081  -0.01475   0.06169
           A5          -0.03577  -0.01377  -0.00552  -0.03786   0.13925
           A6          -0.01377  -0.03577  -0.00553  -0.03786  -0.00642
           A7          -0.00616  -0.00616   0.02752  -0.00071  -0.00397
           D1          -0.02037   0.02037   0.00000   0.00000  -0.00822
           D2           0.02219   0.00092   0.01076  -0.01768  -0.00648
           D3          -0.00092  -0.02219  -0.01076   0.01768   0.01051
                          A6        A7        D1        D2        D3
           A6           0.13925
           A7          -0.00397   0.16627
           D1           0.00822   0.00000   0.01678
           D2          -0.01051   0.00218  -0.00758   0.01819
           D3           0.00648  -0.00218  -0.00758  -0.00930   0.01819
 ITU=  0
     Eigenvalues ---    0.00132   0.08115   0.08177   0.13143   0.15132
     Eigenvalues ---    0.17668   0.19804   0.37516   0.37584   0.38308
     Eigenvalues ---    0.459211000.000001000.000001000.000001000.00000
 RFO step:  Lambda=-4.92143155D-03 EMin= 1.32467025D-03
 Linear search not attempted -- first point.
 Iteration  1 RMS(Cart)=  0.06555929 RMS(Int)=  0.00300411
 Iteration  2 RMS(Cart)=  0.00229063 RMS(Int)=  0.00108098
 Iteration  3 RMS(Cart)=  0.00000194 RMS(Int)=  0.00108098
 Iteration  4 RMS(Cart)=  0.00000000 RMS(Int)=  0.00108098
 Iteration  1 RMS(Cart)=  0.00000000 RMS(Int)=  0.00000000
 Variable       Old X    -DE/DX   Delta X   Delta X   Delta X     New X
                                 (Linear)    (Quad)   (Total)
    R1        2.04682   0.00253   0.00000   0.00753   0.00753   2.05435
    R2        2.05163   0.00265   0.00000   0.00934   0.00934   2.06097
    R3        2.05163   0.00265   0.00000   0.00934   0.00934   2.06097
    R4        3.21253  -0.05821   0.00000   0.00000   0.00000   3.21253
    R5        1.86736  -0.00953   0.00000  -0.02384  -0.02384   1.84352
    A1        2.01526  -0.00695   0.00000  -0.03285  -0.03471   1.98056
    A2        2.01526  -0.00695   0.00000  -0.03285  -0.03471   1.98056
    A3        1.71503   0.01229   0.00000   0.04698   0.04550   1.76053
    A4        2.03063  -0.00624   0.00000  -0.03156  -0.03349   1.99713
    A5        1.81351   0.00867   0.00000   0.04787   0.04634   1.85985
    A6        1.81353   0.00867   0.00000   0.04785   0.04632   1.85985
    A7        1.71699   0.02145   0.00000   0.11941   0.11941   1.83640
    D1        3.14149   0.00000   0.00000   0.00002   0.00002   3.14151
    D2       -1.06617  -0.00038   0.00000  -0.00370  -0.00367  -1.06984
    D3        1.06596   0.00038   0.00000   0.00374   0.00371   1.06967
         Item               Value     Threshold  Converged?
 Maximum Force            0.021455     0.000450     NO 
 RMS     Force            0.008489     0.000300     NO 
 Maximum Displacement     0.192117     0.001800     NO 
 RMS     Displacement     0.064866     0.001200     NO 
 Predicted change in Energy=-2.522129D-03
 GradGradGradGradGradGradGradGradGradGradGradGradGradGradGradGradGradGrad

                          Input orientation:                          
 ---------------------------------------------------------------------
 Center     Atomic      Atomic             Coordinates (Angstroms)
 Number     Number       Type             X           Y           Z
 ---------------------------------------------------------------------
      1          6           0        0.812828   -0.000659    0.000002
      2          1           0        1.066570    1.056429   -0.000111
      3          1           0        1.100359   -0.516414    0.916935
      4          1           0        1.100370   -0.516611   -0.916818
      5          8           0       -0.885385    0.077249   -0.000011
      6          1           0       -1.184327   -0.851367    0.000008
 ---------------------------------------------------------------------
                    Distance matrix (angstroms):
                    1          2          3          4          5
     1  C    0.000000
     2  H    1.087116   0.000000
     3  H    1.090616   1.820975   0.000000
     4  H    1.090616   1.820974   1.833753   0.000000
     5  O    1.700000   2.183787   2.266365   2.266369   0.000000
     6  H    2.170791   2.950631   2.484500   2.484446   0.975547
                    6
     6  H    0.000000
 Stoichiometry    CH4O
 Framework group  C1[X(CH4O)]
 Deg. of freedom    12
 Full point group                 C1      NOp   1
 Largest Abelian subgroup         C1      NOp   1
 Largest concise Abelian subgroup C1      NOp   1
                         Standard orientation:                         
 ---------------------------------------------------------------------
 Center     Atomic      Atomic             Coordinates (Angstroms)
 Number     Number       Type             X           Y           Z
 ---------------------------------------------------------------------
      1          6           0        0.819562   -0.017374    0.000005
      2          1           0        1.110024    1.030219   -0.000107
      3          1           0        1.088927   -0.542845    0.916939
      4          1           0        1.088931   -0.543042   -0.916814
      5          8           0       -0.874900    0.119726   -0.000008
      6          1           0       -1.206053   -0.797896    0.000012
 ---------------------------------------------------------------------
 Rotational constants (GHZ):    120.9638897     18.7207056     18.1891159
 Standard basis: 6-31+G (6D, 7F)
 There are    34 symmetry adapted cartesian basis functions of A   symmetry.
 There are    34 symmetry adapted basis functions of A   symmetry.
    34 basis functions,    68 primitive gaussians,    34 cartesian basis functions
     9 alpha electrons        9 beta electrons
       nuclear repulsion energy        36.6363172657 Hartrees.
 NAtoms=    6 NActive=    6 NUniq=    6 SFac= 1.00D+00 NAtFMM=   60 NAOKFM=F Big=F
 Integral buffers will be    131072 words long.
 Raffenetti 2 integral format.
 Two-electron integral symmetry is turned on.
 One-electron integrals computed using PRISM.
 NBasis=    34 RedAO= T EigKep=  8.87D-03  NBF=    34
 NBsUse=    34 1.00D-06 EigRej= -1.00D+00 NBFU=    34
 Initial guess from the checkpoint file:  "moh-x0-1.7.chk"
 B after Tr=     0.000000    0.000000    0.000000
         Rot=    0.999986    0.000001    0.000002    0.005281 Ang=   0.61 deg.
 ExpMin= 4.38D-02 ExpMax= 5.48D+03 ExpMxC= 8.25D+02 IAcc=2 IRadAn=         4 AccDes= 0.00D+00
 Harris functional with IExCor= 1009 and IRadAn=       4 diagonalized for initial guess.
 HarFok:  IExCor= 1009 AccDes= 0.00D+00 IRadAn=         4 IDoV= 1 UseB2=F ITyADJ=14
 ICtDFT=  3500011 ScaDFX=  1.000000  1.000000  1.000000  1.000000
 FoFCou: FMM=F IPFlag=           0 FMFlag=      100000 FMFlg1=           0
         NFxFlg=           0 DoJE=T BraDBF=F KetDBF=T FulRan=T
         wScrn=  0.000000 ICntrl=     500 IOpCl=  0 I1Cent=   200000004 NGrid=           0
         NMat0=    1 NMatS0=      1 NMatT0=    0 NMatD0=    1 NMtDS0=    0 NMtDT0=    0
 Petite list used in FoFCou.
 Keep R1 ints in memory in canonical form, NReq=1060842.
 Requested convergence on RMS density matrix=1.00D-08 within 128 cycles.
 Requested convergence on MAX density matrix=1.00D-06.
 Requested convergence on             energy=1.00D-06.
 No special actions if energy rises.
 SCF Done:  E(RBMK) =  -115.597221086     A.U. after    9 cycles
            NFock=  9  Conv=0.34D-08     -V/T= 2.0081
 Calling FoFJK, ICntrl=      2127 FMM=F ISym2X=0 I1Cent= 0 IOpClX= 0 NMat=1 NMatS=1 NMatT=0.
 ***** Axes restored to original set *****
 -------------------------------------------------------------------
 Center     Atomic                   Forces (Hartrees/Bohr)
 Number     Number              X              Y              Z
 -------------------------------------------------------------------
      1        6          -0.071863537    0.003604642   -0.000000412
      2        1           0.000724620   -0.000036790    0.000000062
      3        1           0.000692011    0.000040831   -0.000056201
      4        1           0.000691985    0.000040920    0.000056020
      5        8           0.070753548   -0.003481733    0.000000311
      6        1          -0.000998627   -0.000167871    0.000000220
 -------------------------------------------------------------------
 Cartesian Forces:  Max     0.071863537 RMS     0.023802506

 GradGradGradGradGradGradGradGradGradGradGradGradGradGradGradGradGradGrad
 Berny optimization.
 Using GEDIIS/GDIIS optimizer.
 FormGI is forming the generalized inverse of G from B-inverse, IUseBI=4.
 Internal  Forces:  Max     0.069861157 RMS     0.018050271
 Search for a local minimum.
 Step number   2 out of a maximum of   25
 All quantities printed in internal units (Hartrees-Bohrs-Radians)
 Mixed Optimization -- En-DIIS/RFO-DIIS
 Update second derivatives using D2CorX and points    1    2
 DE= -2.61D-03 DEPred=-2.52D-03 R= 1.04D+00
 TightC=F SS=  1.41D+00  RLast= 1.58D-01 DXNew= 5.0454D-01 4.7414D-01
 Trust test= 1.04D+00 RLast= 1.58D-01 DXMaxT set to 4.74D-01
 The second derivative matrix:
                          R1        R2        R3        R4        R5
           R1           0.38234
           R2           0.00007   0.37450
           R3           0.00007   0.00021   0.37449
           R4           0.00178   0.00303   0.00303   0.10751
           R5          -0.00134   0.00009   0.00009  -0.00425   0.46212
           A1           0.00578   0.00767  -0.00590  -0.02126   0.00065
           A2           0.00578  -0.00589   0.00767  -0.02126   0.00065
           A3           0.00132  -0.00452  -0.00452   0.03501   0.00036
           A4          -0.00569   0.00757   0.00757  -0.02083   0.00082
           A5          -0.00452  -0.00465  -0.00458   0.02966  -0.00224
           A6          -0.00452  -0.00458  -0.00465   0.02966  -0.00224
           A7           0.00071  -0.00019  -0.00019   0.04153   0.01069
           D1           0.00000  -0.00514   0.00514   0.00000   0.00000
           D2           0.00526  -0.00002  -0.00428  -0.00142   0.00040
           D3          -0.00526   0.00428   0.00002   0.00143  -0.00040
                          A1        A2        A3        A4        A5
           A1           0.06103
           A2          -0.00292   0.06103
           A3          -0.03502  -0.03502   0.14009
           A4          -0.00175  -0.00175  -0.01347   0.06078
           A5          -0.03463  -0.01263  -0.00700  -0.03674   0.13790
           A6          -0.01263  -0.03463  -0.00700  -0.03674  -0.00777
           A7          -0.00398  -0.00398   0.02505   0.00150  -0.00651
           D1          -0.02037   0.02037   0.00000   0.00000  -0.00822
           D2           0.02212   0.00085   0.01086  -0.01775  -0.00639
           D3          -0.00085  -0.02212  -0.01086   0.01775   0.01043
                          A6        A7        D1        D2        D3
           A6           0.13790
           A7          -0.00651   0.16201
           D1           0.00822   0.00000   0.01678
           D2          -0.01043   0.00236  -0.00758   0.01818
           D3           0.00639  -0.00235  -0.00758  -0.00929   0.01818
 ITU=  1  0
 Use linear search instead of GDIIS.
     Eigenvalues ---    0.00132   0.08111   0.08173   0.13039   0.15116
     Eigenvalues ---    0.17519   0.18804   0.37516   0.37590   0.38305
     Eigenvalues ---    0.462571000.000001000.000001000.000001000.00000
 RFO step:  Lambda=-5.25344442D-06 EMin= 1.32466944D-03
 Quartic linear search produced a step of  0.08665.
 Iteration  1 RMS(Cart)=  0.00630319 RMS(Int)=  0.00009907
 Iteration  2 RMS(Cart)=  0.00001976 RMS(Int)=  0.00009572
 Iteration  3 RMS(Cart)=  0.00000000 RMS(Int)=  0.00009572
 Iteration  1 RMS(Cart)=  0.00000000 RMS(Int)=  0.00000000
 Variable       Old X    -DE/DX   Delta X   Delta X   Delta X     New X
                                 (Linear)    (Quad)   (Total)
    R1        2.05435   0.00014   0.00065  -0.00009   0.00056   2.05491
    R2        2.06097   0.00011   0.00081  -0.00022   0.00059   2.06155
    R3        2.06097   0.00011   0.00081  -0.00022   0.00059   2.06155
    R4        3.21253  -0.06986   0.00000   0.00000   0.00000   3.21253
    R5        1.84352   0.00049  -0.00207   0.00292   0.00086   1.84438
    A1        1.98056  -0.00070  -0.00301  -0.00066  -0.00383   1.97673
    A2        1.98056  -0.00070  -0.00301  -0.00066  -0.00382   1.97673
    A3        1.76053   0.00086   0.00394  -0.00051   0.00330   1.76384
    A4        1.99713  -0.00070  -0.00290  -0.00097  -0.00404   1.99309
    A5        1.85985   0.00087   0.00402   0.00165   0.00553   1.86537
    A6        1.85985   0.00087   0.00401   0.00164   0.00552   1.86537
    A7        1.83640   0.00162   0.01035  -0.00012   0.01023   1.84663
    D1        3.14151   0.00000   0.00000   0.00010   0.00010  -3.14158
    D2       -1.06984  -0.00006  -0.00032  -0.00023  -0.00055  -1.07039
    D3        1.06967   0.00006   0.00032   0.00042   0.00075   1.07042
         Item               Value     Threshold  Converged?
 Maximum Force            0.001617     0.000450     NO 
 RMS     Force            0.000687     0.000300     NO 
 Maximum Displacement     0.018386     0.001800     NO 
 RMS     Displacement     0.006304     0.001200     NO 
 Predicted change in Energy=-1.816149D-05
 GradGradGradGradGradGradGradGradGradGradGradGradGradGradGradGradGradGrad

                          Input orientation:                          
 ---------------------------------------------------------------------
 Center     Atomic      Atomic             Coordinates (Angstroms)
 Number     Number       Type             X           Y           Z
 ---------------------------------------------------------------------
      1          6           0        0.811722   -0.000787   -0.000003
      2          1           0        1.067777    1.056048   -0.000099
      3          1           0        1.105758   -0.515193    0.915994
      4          1           0        1.105796   -0.515369   -0.915890
      5          8           0       -0.886583    0.075116   -0.000047
      6          1           0       -1.194057   -0.851187    0.000050
 ---------------------------------------------------------------------
                    Distance matrix (angstroms):
                    1          2          3          4          5
     1  C    0.000000
     2  H    1.087412   0.000000
     3  H    1.090927   1.819194   0.000000
     4  H    1.090927   1.819194   1.831884   0.000000
     5  O    1.700000   2.186721   2.270907   2.270906   0.000000
     6  H    2.178607   2.958621   2.498198   2.498209   0.976001
                    6
     6  H    0.000000
 Stoichiometry    CH4O
 Framework group  C1[X(CH4O)]
 Deg. of freedom    12
 Full point group                 C1      NOp   1
 Largest Abelian subgroup         C1      NOp   1
 Largest concise Abelian subgroup C1      NOp   1
                         Standard orientation:                         
 ---------------------------------------------------------------------
 Center     Atomic      Atomic             Coordinates (Angstroms)
 Number     Number       Type             X           Y           Z
 ---------------------------------------------------------------------
      1          6           0        0.819232   -0.017729    0.000015
      2          1           0        1.113407    1.029135   -0.000080
      3          1           0        1.094438   -0.542450    0.916013
      4          1           0        1.094470   -0.542627   -0.915871
      5          8           0       -0.875208    0.119653   -0.000028
      6          1           0       -1.216040   -0.794903    0.000069
 ---------------------------------------------------------------------
 Rotational constants (GHZ):    121.2949614     18.6830630     18.1565130
 Standard basis: 6-31+G (6D, 7F)
 There are    34 symmetry adapted cartesian basis functions of A   symmetry.
 There are    34 symmetry adapted basis functions of A   symmetry.
    34 basis functions,    68 primitive gaussians,    34 cartesian basis functions
     9 alpha electrons        9 beta electrons
       nuclear repulsion energy        36.6145636085 Hartrees.
 NAtoms=    6 NActive=    6 NUniq=    6 SFac= 1.00D+00 NAtFMM=   60 NAOKFM=F Big=F
 Integral buffers will be    131072 words long.
 Raffenetti 2 integral format.
 Two-electron integral symmetry is turned on.
 One-electron integrals computed using PRISM.
 NBasis=    34 RedAO= T EigKep=  8.89D-03  NBF=    34
 NBsUse=    34 1.00D-06 EigRej= -1.00D+00 NBFU=    34
 Initial guess from the checkpoint file:  "moh-x0-1.7.chk"
 B after Tr=     0.000000    0.000000    0.000000
         Rot=    1.000000    0.000004    0.000006    0.000294 Ang=   0.03 deg.
 Keep R1 ints in memory in canonical form, NReq=1060842.
 Requested convergence on RMS density matrix=1.00D-08 within 128 cycles.
 Requested convergence on MAX density matrix=1.00D-06.
 Requested convergence on             energy=1.00D-06.
 No special actions if energy rises.
 SCF Done:  E(RBMK) =  -115.597240694     A.U. after    8 cycles
            NFock=  8  Conv=0.40D-08     -V/T= 2.0081
 Calling FoFJK, ICntrl=      2127 FMM=F ISym2X=0 I1Cent= 0 IOpClX= 0 NMat=1 NMatS=1 NMatT=0.
 ***** Axes restored to original set *****
 -------------------------------------------------------------------
 Center     Atomic                   Forces (Hartrees/Bohr)
 Number     Number              X              Y              Z
 -------------------------------------------------------------------
      1        6          -0.070863815    0.003133590   -0.000001765
      2        1           0.000047904   -0.000011427   -0.000000012
      3        1           0.000022056   -0.000009678   -0.000008766
      4        1           0.000021900   -0.000009671    0.000008768
      5        8           0.070763096   -0.003178002    0.000001841
      6        1           0.000008858    0.000075188   -0.000000066
 -------------------------------------------------------------------
 Cartesian Forces:  Max     0.070863815 RMS     0.023627931

 GradGradGradGradGradGradGradGradGradGradGradGradGradGradGradGradGradGrad
 Berny optimization.
 Using GEDIIS/GDIIS optimizer.
 FormGI is forming the generalized inverse of G from B-inverse, IUseBI=4.
 Internal  Forces:  Max     0.070852274 RMS     0.018293995
 Search for a local minimum.
 Step number   3 out of a maximum of   25
 All quantities printed in internal units (Hartrees-Bohrs-Radians)
 Mixed Optimization -- En-DIIS/RFO-DIIS
 Swapping is turned off.
 Update second derivatives using D2CorX and points    1    2    3
 DE= -1.96D-05 DEPred=-1.82D-05 R= 1.08D+00
 TightC=F SS=  1.41D+00  RLast= 1.50D-02 DXNew= 7.9741D-01 4.4974D-02
 Trust test= 1.08D+00 RLast= 1.50D-02 DXMaxT set to 4.74D-01
 The second derivative matrix:
                          R1        R2        R3        R4        R5
           R1           0.38227
           R2           0.00003   0.37449
           R3           0.00003   0.00020   0.37448
           R4           0.00115   0.00268   0.00268   0.10219
           R5          -0.00115   0.00032   0.00032  -0.00311   0.46398
           A1           0.00577   0.00755  -0.00602  -0.02085  -0.00117
           A2           0.00577  -0.00602   0.00755  -0.02085  -0.00117
           A3           0.00075  -0.00485  -0.00485   0.03025   0.00124
           A4          -0.00570   0.00745   0.00744  -0.02046  -0.00100
           A5          -0.00514  -0.00503  -0.00495   0.02451  -0.00153
           A6          -0.00514  -0.00495  -0.00503   0.02451  -0.00152
           A7           0.00022  -0.00031  -0.00031   0.03673   0.01390
           D1           0.00000  -0.00514   0.00514   0.00000   0.00000
           D2           0.00529   0.00000  -0.00426  -0.00111   0.00034
           D3          -0.00529   0.00426   0.00000   0.00111  -0.00034
                          A1        A2        A3        A4        A5
           A1           0.06257
           A2          -0.00138   0.06257
           A3          -0.03454  -0.03454   0.13585
           A4          -0.00021  -0.00021  -0.01301   0.06231
           A5          -0.03385  -0.01185  -0.01157  -0.03600   0.13302
           A6          -0.01186  -0.03385  -0.01157  -0.03600  -0.01264
           A7          -0.00562  -0.00562   0.02060  -0.00015  -0.01165
           D1          -0.02037   0.02037   0.00000   0.00000  -0.00822
           D2           0.02209   0.00082   0.01114  -0.01778  -0.00610
           D3          -0.00082  -0.02209  -0.01114   0.01778   0.01013
                          A6        A7        D1        D2        D3
           A6           0.13303
           A7          -0.01164   0.16024
           D1           0.00822   0.00000   0.01678
           D2          -0.01013   0.00264  -0.00758   0.01816
           D3           0.00609  -0.00264  -0.00758  -0.00927   0.01816
 ITU=  1  1  0
     Eigenvalues ---    0.00132   0.08109   0.08172   0.12947   0.15114
     Eigenvalues ---    0.16942   0.18384   0.37516   0.37591   0.38302
     Eigenvalues ---    0.464671000.000001000.000001000.000001000.00000
 En-DIIS/RFO-DIIS IScMMF=        0 using points:     3    2
 RFO step:  Lambda=-1.58766797D-04.
 DidBck=F Rises=F RFO-DIIS coefs:    1.01688   -0.01688
 Iteration  1 RMS(Cart)=  0.00013240 RMS(Int)=  0.00000020
 Iteration  2 RMS(Cart)=  0.00000002 RMS(Int)=  0.00000020
 Iteration  1 RMS(Cart)=  0.00000000 RMS(Int)=  0.00000000
 Variable       Old X    -DE/DX   Delta X   Delta X   Delta X     New X
                                 (Linear)    (Quad)   (Total)
    R1        2.05491   0.00001   0.00001   0.00002   0.00003   2.05494
    R2        2.06155   0.00000   0.00001   0.00000   0.00001   2.06156
    R3        2.06155   0.00000   0.00001   0.00000   0.00001   2.06156
    R4        3.21253  -0.07085   0.00000   0.00000   0.00000   3.21253
    R5        1.84438  -0.00005   0.00001  -0.00012  -0.00011   1.84427
    A1        1.97673  -0.00003  -0.00006  -0.00010  -0.00017   1.97656
    A2        1.97673  -0.00003  -0.00006  -0.00010  -0.00017   1.97656
    A3        1.76384   0.00003   0.00006   0.00010   0.00016   1.76400
    A4        1.99309  -0.00003  -0.00007  -0.00011  -0.00018   1.99292
    A5        1.86537   0.00004   0.00009   0.00014   0.00023   1.86561
    A6        1.86537   0.00004   0.00009   0.00014   0.00023   1.86560
    A7        1.84663  -0.00001   0.00017  -0.00024  -0.00007   1.84656
    D1       -3.14158   0.00000   0.00000  -0.00003  -0.00003   3.14158
    D2       -1.07039   0.00000  -0.00001  -0.00005  -0.00006  -1.07044
    D3        1.07042   0.00000   0.00001  -0.00002  -0.00001   1.07041
         Item               Value     Threshold  Converged?
 Maximum Force            0.000051     0.000450     YES
 RMS     Force            0.000026     0.000300     YES
 Maximum Displacement     0.000234     0.001800     YES
 RMS     Displacement     0.000132     0.001200     YES
 Predicted change in Energy=-2.219125D-08
 Optimization completed.
    -- Stationary point found.
                           ----------------------------
                           !   Optimized Parameters   !
                           ! (Angstroms and Degrees)  !
 --------------------------                            --------------------------
 ! Name  Definition              Value          Derivative Info.                !
 --------------------------------------------------------------------------------
 ! R1    R(1,2)                  1.0874         -DE/DX =    0.0                 !
 ! R2    R(1,3)                  1.0909         -DE/DX =    0.0                 !
 ! R3    R(1,4)                  1.0909         -DE/DX =    0.0                 !
 ! R4    R(1,5)                  1.7            -DE/DX =   -0.0709              !
 ! R5    R(5,6)                  0.976          -DE/DX =   -0.0001              !
 ! A1    A(2,1,3)              113.2584         -DE/DX =    0.0                 !
 ! A2    A(2,1,4)              113.2585         -DE/DX =    0.0                 !
 ! A3    A(2,1,5)              101.0604         -DE/DX =    0.0                 !
 ! A4    A(3,1,4)              114.1958         -DE/DX =    0.0                 !
 ! A5    A(3,1,5)              106.878          -DE/DX =    0.0                 !
 ! A6    A(4,1,5)              106.878          -DE/DX =    0.0                 !
 ! A7    A(1,5,6)              105.8039         -DE/DX =    0.0                 !
 ! D1    D(2,1,5,6)            180.0009         -DE/DX =    0.0                 !
 ! D2    D(3,1,5,6)            -61.3286         -DE/DX =    0.0                 !
 ! D3    D(4,1,5,6)             61.3304         -DE/DX =    0.0                 !
 --------------------------------------------------------------------------------
 GradGradGradGradGradGradGradGradGradGradGradGradGradGradGradGradGradGrad

                          Input orientation:                          
 ---------------------------------------------------------------------
 Center     Atomic      Atomic             Coordinates (Angstroms)
 Number     Number       Type             X           Y           Z
 ---------------------------------------------------------------------
      1          6           0        0.811722   -0.000787   -0.000003
      2          1           0        1.067777    1.056048   -0.000099
      3          1           0        1.105758   -0.515193    0.915994
      4          1           0        1.105796   -0.515369   -0.915890
      5          8           0       -0.886583    0.075116   -0.000047
      6          1           0       -1.194057   -0.851187    0.000050
 ---------------------------------------------------------------------
                    Distance matrix (angstroms):
                    1          2          3          4          5
     1  C    0.000000
     2  H    1.087412   0.000000
     3  H    1.090927   1.819194   0.000000
     4  H    1.090927   1.819194   1.831884   0.000000
     5  O    1.700000   2.186721   2.270907   2.270906   0.000000
     6  H    2.178607   2.958621   2.498198   2.498209   0.976001
                    6
     6  H    0.000000
 Stoichiometry    CH4O
 Framework group  C1[X(CH4O)]
 Deg. of freedom    12
 Full point group                 C1      NOp   1
 Largest Abelian subgroup         C1      NOp   1
 Largest concise Abelian subgroup C1      NOp   1
                         Standard orientation:                         
 ---------------------------------------------------------------------
 Center     Atomic      Atomic             Coordinates (Angstroms)
 Number     Number       Type             X           Y           Z
 ---------------------------------------------------------------------
      1          6           0        0.819232   -0.017729    0.000015
      2          1           0        1.113407    1.029135   -0.000080
      3          1           0        1.094438   -0.542450    0.916013
      4          1           0        1.094470   -0.542627   -0.915871
      5          8           0       -0.875208    0.119653   -0.000028
      6          1           0       -1.216040   -0.794903    0.000069
 ---------------------------------------------------------------------
 Rotational constants (GHZ):    121.2949614     18.6830630     18.1565130

 **********************************************************************

            Population analysis using the SCF density.

 **********************************************************************

 Orbital symmetries:
       Occupied  (A) (A) (A) (A) (A) (A) (A) (A) (A)
       Virtual   (A) (A) (A) (A) (A) (A) (A) (A) (A) (A) (A) (A)
                 (A) (A) (A) (A) (A) (A) (A) (A) (A) (A) (A) (A)
                 (A)
 The electronic state is 1-A.
 Alpha  occ. eigenvalues --  -19.55090 -10.53622  -1.05959  -0.76941  -0.52047
 Alpha  occ. eigenvalues --   -0.49369  -0.45895  -0.38063  -0.32728
 Alpha virt. eigenvalues --    0.02658   0.04895   0.08628   0.08906   0.13216
 Alpha virt. eigenvalues --    0.19474   0.22015   0.22937   0.23657   0.26950
 Alpha virt. eigenvalues --    0.29626   0.30399   0.38259   0.67811   0.68164
 Alpha virt. eigenvalues --    0.69789   1.04713   1.05066   1.10524   1.15801
 Alpha virt. eigenvalues --    1.27468   1.29226   1.34614   1.37834   1.83264
          Condensed to atoms (all electrons):
               1          2          3          4          5          6
     1  C    5.125313   0.386793   0.368642   0.368642   0.150116  -0.014269
     2  H    0.386793   0.473674  -0.026277  -0.026277  -0.035988   0.003452
     3  H    0.368642  -0.026277   0.529165  -0.033566  -0.033273  -0.002030
     4  H    0.368642  -0.026277  -0.033566   0.529164  -0.033273  -0.002030
     5  O    0.150116  -0.035988  -0.033273  -0.033273   8.394549   0.185658
     6  H   -0.014269   0.003452  -0.002030  -0.002030   0.185658   0.435499
 Mulliken charges:
               1
     1  C   -0.385237
     2  H    0.224624
     3  H    0.197340
     4  H    0.197340
     5  O   -0.627788
     6  H    0.393721
 Sum of Mulliken charges =   0.00000
 Mulliken charges with hydrogens summed into heavy atoms:
               1
     1  C    0.234068
     5  O   -0.234068
 Electronic spatial extent (au):  <R**2>=             98.2396
 Charge=              0.0000 electrons
 Dipole moment (field-independent basis, Debye):
    X=              2.0782    Y=             -2.0317    Z=              0.0003  Tot=              2.9063
 Quadrupole moment (field-independent basis, Debye-Ang):
   XX=            -13.1121   YY=            -12.1876   ZZ=            -13.9283
   XY=              2.8545   XZ=             -0.0003   YZ=             -0.0001
 Traceless Quadrupole moment (field-independent basis, Debye-Ang):
   XX=             -0.0361   YY=              0.8884   ZZ=             -0.8523
   XY=              2.8545   XZ=             -0.0003   YZ=             -0.0001
 Octapole moment (field-independent basis, Debye-Ang**2):
  XXX=             -2.3449  YYY=             -0.7285  ZZZ=              0.0004  XYY=             -0.9656
  XXY=             -3.3633  XXZ=              0.0003  XZZ=              0.8003  YZZ=             -1.1732
  YYZ=             -0.0002  XYZ=              0.0002
 Hexadecapole moment (field-independent basis, Debye-Ang**3):
 XXXX=            -79.6532 YYYY=            -20.2563 ZZZZ=            -20.3879 XXXY=              5.5210
 XXXZ=             -0.0011 YYYX=              3.8409 YYYZ=              0.0000 ZZZX=             -0.0005
 ZZZY=              0.0000 XXYY=            -15.1189 XXZZ=            -17.2401 YYZZ=             -6.9353
 XXYZ=             -0.0001 YYXZ=             -0.0006 ZZXY=             -0.1707
 N-N= 3.661456360852D+01 E-N=-3.442259451469D+02  KE= 1.146665751112D+02
 1\1\GINC-CASCADE-022\FOpt\RBMK\6-31+G\C1H4O1\FARRUGMA\29-Jul-2022\0\\#
  opt=(calcfc, modredundant) freq=(savenormalmodes, IntModes) 6-31+g ge
 om=(connectivity) bmk\\Title Card Required\\0,1\C,0.8117221488,-0.0007
 874813,-0.0000034846\H,1.0677770956,1.056047751,-0.0000990241\H,1.1057
 583492,-0.5151932726,0.9159940955\H,1.1057964352,-0.5153685634,-0.9158
 902193\O,-0.8865825007,0.0751160041,-0.0000465772\H,-1.194056948,-0.85
 11874078,0.0000504797\\Version=ES64L-G09RevD.01\State=1-A\HF=-115.5972
 407\RMSD=4.000e-09\RMSF=2.363e-02\Dipole=0.8460459,-0.7691791,0.000103
 5\Quadrupole=-0.1796168,0.8132752,-0.6336584,2.0918026,-0.0002234,-0.0
 001176\PG=C01 [X(C1H4O1)]\\@


 I WANT TO KNOW HOW GOD CREATED THE WORLD.  I AM NOT INTERESTED IN
 THIS OR THAT PHENOMENON, IN THE SPECTRUM OF THIS OR THAT ELEMENT.
 I WANT TO KNOW HIS THOUGHTS, THE REST ARE DETAILS.
     -- ALBERT EINSTEIN
 Job cpu time:       0 days  0 hours  0 minutes 16.9 seconds.
 File lengths (MBytes):  RWF=     42 Int=      0 D2E=      0 Chk=      1 Scr=      1
 Normal termination of Gaussian 09 at Fri Jul 29 14:55:32 2022.
 Link1:  Proceeding to internal job step number  2.
 ----------------------------------------------------------------
 #N Geom=AllCheck Guess=TCheck SCRF=Check GenChk RBMK/6-31+G Freq
 ----------------------------------------------------------------
 1/10=4,18=20,29=7,30=1,38=1,40=1/1,3;
 2/9=110,12=2,40=1/2;
 3/5=1,6=6,7=10,11=2,14=-4,16=1,25=1,30=1,70=2,71=2,74=-34,116=1,140=1/1,2,3;
 4/5=101/1;
 5/5=2,98=1/2;
 8/6=4,10=90,11=11/1;
 11/6=1,8=1,9=11,15=111,16=1/1,2,10;
 10/6=1/2;
 6/7=2,8=2,9=2,10=2,18=1,28=1/1;
 7/8=21,10=1,25=1,92=1/1,2,3,16;
 1/10=4,18=20,30=1/3;
 99//99;
 Structure from the checkpoint file:  "moh-x0-1.7.chk"
 -------------------
 Title Card Required
 -------------------
 Charge =  0 Multiplicity = 1
 Redundant internal coordinates found in file.
 C,0,0.8117221488,-0.0007874813,-0.0000034846
 H,0,1.0677770956,1.056047751,-0.0000990241
 H,0,1.1057583492,-0.5151932726,0.9159940955
 H,0,1.1057964352,-0.5153685634,-0.9158902193
 O,0,-0.8865825007,0.0751160041,-0.0000465772
 H,0,-1.194056948,-0.8511874078,0.0000504797
 Recover connectivity data from disk.

 GradGradGradGradGradGradGradGradGradGradGradGradGradGradGradGradGradGrad
 Berny optimization.
 Initialization pass.
                           ----------------------------
                           !    Initial Parameters    !
                           ! (Angstroms and Degrees)  !
 --------------------------                            --------------------------
 ! Name  Definition              Value          Derivative Info.                !
 --------------------------------------------------------------------------------
 ! R1    R(1,2)                  1.0874         calculate D2E/DX2 analytically  !
 ! R2    R(1,3)                  1.0909         calculate D2E/DX2 analytically  !
 ! R3    R(1,4)                  1.0909         calculate D2E/DX2 analytically  !
 ! R4    R(1,5)                  1.7            frozen, calculate D2E/DX2 analyt!
 ! R5    R(5,6)                  0.976          calculate D2E/DX2 analytically  !
 ! A1    A(2,1,3)              113.2584         calculate D2E/DX2 analytically  !
 ! A2    A(2,1,4)              113.2585         calculate D2E/DX2 analytically  !
 ! A3    A(2,1,5)              101.0604         calculate D2E/DX2 analytically  !
 ! A4    A(3,1,4)              114.1958         calculate D2E/DX2 analytically  !
 ! A5    A(3,1,5)              106.878          calculate D2E/DX2 analytically  !
 ! A6    A(4,1,5)              106.878          calculate D2E/DX2 analytically  !
 ! A7    A(1,5,6)              105.8039         calculate D2E/DX2 analytically  !
 ! D1    D(2,1,5,6)           -179.9991         calculate D2E/DX2 analytically  !
 ! D2    D(3,1,5,6)            -61.3286         calculate D2E/DX2 analytically  !
 ! D3    D(4,1,5,6)             61.3304         calculate D2E/DX2 analytically  !
 --------------------------------------------------------------------------------
 Trust Radius=3.00D-01 FncErr=1.00D-07 GrdErr=1.00D-07
 Number of steps in this run=      2 maximum allowed number of steps=      2.
 GradGradGradGradGradGradGradGradGradGradGradGradGradGradGradGradGradGrad

                          Input orientation:                          
 ---------------------------------------------------------------------
 Center     Atomic      Atomic             Coordinates (Angstroms)
 Number     Number       Type             X           Y           Z
 ---------------------------------------------------------------------
      1          6           0        0.811722   -0.000787   -0.000003
      2          1           0        1.067777    1.056048   -0.000099
      3          1           0        1.105758   -0.515193    0.915994
      4          1           0        1.105796   -0.515369   -0.915890
      5          8           0       -0.886583    0.075116   -0.000047
      6          1           0       -1.194057   -0.851187    0.000050
 ---------------------------------------------------------------------
                    Distance matrix (angstroms):
                    1          2          3          4          5
     1  C    0.000000
     2  H    1.087412   0.000000
     3  H    1.090927   1.819194   0.000000
     4  H    1.090927   1.819194   1.831884   0.000000
     5  O    1.700000   2.186721   2.270907   2.270906   0.000000
     6  H    2.178607   2.958621   2.498198   2.498209   0.976001
                    6
     6  H    0.000000
 Stoichiometry    CH4O
 Framework group  C1[X(CH4O)]
 Deg. of freedom    12
 Full point group                 C1      NOp   1
 Largest Abelian subgroup         C1      NOp   1
 Largest concise Abelian subgroup C1      NOp   1
                         Standard orientation:                         
 ---------------------------------------------------------------------
 Center     Atomic      Atomic             Coordinates (Angstroms)
 Number     Number       Type             X           Y           Z
 ---------------------------------------------------------------------
      1          6           0        0.819232   -0.017729    0.000015
      2          1           0        1.113407    1.029135   -0.000080
      3          1           0        1.094438   -0.542450    0.916013
      4          1           0        1.094470   -0.542627   -0.915871
      5          8           0       -0.875208    0.119653   -0.000028
      6          1           0       -1.216040   -0.794903    0.000069
 ---------------------------------------------------------------------
 Rotational constants (GHZ):    121.2949614     18.6830630     18.1565130
 Standard basis: 6-31+G (6D, 7F)
 There are    34 symmetry adapted cartesian basis functions of A   symmetry.
 There are    34 symmetry adapted basis functions of A   symmetry.
    34 basis functions,    68 primitive gaussians,    34 cartesian basis functions
     9 alpha electrons        9 beta electrons
       nuclear repulsion energy        36.6145636085 Hartrees.
 NAtoms=    6 NActive=    6 NUniq=    6 SFac= 1.00D+00 NAtFMM=   60 NAOKFM=F Big=F
 Integral buffers will be    131072 words long.
 Raffenetti 2 integral format.
 Two-electron integral symmetry is turned on.
 One-electron integrals computed using PRISM.
 NBasis=    34 RedAO= T EigKep=  8.89D-03  NBF=    34
 NBsUse=    34 1.00D-06 EigRej= -1.00D+00 NBFU=    34
 Initial guess from the checkpoint file:  "moh-x0-1.7.chk"
 B after Tr=     0.000000    0.000000    0.000000
         Rot=    1.000000    0.000000    0.000000    0.000000 Ang=   0.00 deg.
 Keep R1 ints in memory in canonical form, NReq=1060842.
 Requested convergence on RMS density matrix=1.00D-08 within 128 cycles.
 Requested convergence on MAX density matrix=1.00D-06.
 Requested convergence on             energy=1.00D-06.
 No special actions if energy rises.
 SCF Done:  E(RBMK) =  -115.597240694     A.U. after    1 cycles
            NFock=  1  Conv=0.57D-09     -V/T= 2.0081
 DoSCS=F DFT=T ScalE2(SS,OS)=  1.000000  1.000000
 Range of M.O.s used for correlation:     1    34
 NBasis=    34 NAE=     9 NBE=     9 NFC=     0 NFV=     0
 NROrb=     34 NOA=     9 NOB=     9 NVA=    25 NVB=    25
 Symmetrizing basis deriv contribution to polar:
 IMax=3 JMax=2 DiffMx= 0.00D+00
 G2DrvN: will do     7 centers at a time, making    1 passes.
 Calling FoFCou, ICntrl=  3107 FMM=F I1Cent=   0 AccDes= 0.00D+00.
 End of G2Drv F.D. properties file   721 does not exist.
 End of G2Drv F.D. properties file   722 does not exist.
 End of G2Drv F.D. properties file   788 does not exist.
          IDoAtm=111111
          Differentiating once with respect to electric field.
                with respect to dipole field.
          Differentiating once with respect to nuclear coordinates.
 Keep R1 ints in memory in canonical form, NReq=1038583.
          There are    21 degrees of freedom in the 1st order CPHF.  IDoFFX=6 NUNeed=     3.
     18 vectors produced by pass  0 Test12= 1.07D-15 4.76D-09 XBig12= 1.29D+01 2.29D+00.
 AX will form    18 AO Fock derivatives at one time.
     18 vectors produced by pass  1 Test12= 1.07D-15 4.76D-09 XBig12= 1.63D+00 4.95D-01.
     18 vectors produced by pass  2 Test12= 1.07D-15 4.76D-09 XBig12= 1.91D-02 4.15D-02.
     18 vectors produced by pass  3 Test12= 1.07D-15 4.76D-09 XBig12= 2.15D-05 1.11D-03.
     18 vectors produced by pass  4 Test12= 1.07D-15 4.76D-09 XBig12= 3.31D-08 5.75D-05.
      9 vectors produced by pass  5 Test12= 1.07D-15 4.76D-09 XBig12= 6.82D-11 3.06D-06.
      3 vectors produced by pass  6 Test12= 1.07D-15 4.76D-09 XBig12= 6.65D-14 1.17D-07.
 InvSVY:  IOpt=1 It=  1 EMax= 3.11D-15
 Solved reduced A of dimension   102 with    21 vectors.
 Isotropic polarizability for W=    0.000000       19.09 Bohr**3.
 End of Minotr F.D. properties file   721 does not exist.
 End of Minotr F.D. properties file   722 does not exist.
 End of Minotr F.D. properties file   788 does not exist.

 **********************************************************************

            Population analysis using the SCF density.

 **********************************************************************

 Orbital symmetries:
       Occupied  (A) (A) (A) (A) (A) (A) (A) (A) (A)
       Virtual   (A) (A) (A) (A) (A) (A) (A) (A) (A) (A) (A) (A)
                 (A) (A) (A) (A) (A) (A) (A) (A) (A) (A) (A) (A)
                 (A)
 The electronic state is 1-A.
 Alpha  occ. eigenvalues --  -19.55090 -10.53622  -1.05959  -0.76941  -0.52047
 Alpha  occ. eigenvalues --   -0.49369  -0.45895  -0.38063  -0.32728
 Alpha virt. eigenvalues --    0.02658   0.04895   0.08628   0.08906   0.13216
 Alpha virt. eigenvalues --    0.19474   0.22015   0.22937   0.23657   0.26950
 Alpha virt. eigenvalues --    0.29626   0.30399   0.38259   0.67811   0.68164
 Alpha virt. eigenvalues --    0.69789   1.04713   1.05066   1.10524   1.15801
 Alpha virt. eigenvalues --    1.27468   1.29226   1.34614   1.37834   1.83264
          Condensed to atoms (all electrons):
               1          2          3          4          5          6
     1  C    5.125313   0.386793   0.368642   0.368642   0.150116  -0.014269
     2  H    0.386793   0.473674  -0.026277  -0.026277  -0.035988   0.003452
     3  H    0.368642  -0.026277   0.529165  -0.033566  -0.033273  -0.002030
     4  H    0.368642  -0.026277  -0.033566   0.529164  -0.033273  -0.002030
     5  O    0.150116  -0.035988  -0.033273  -0.033273   8.394549   0.185658
     6  H   -0.014269   0.003452  -0.002030  -0.002030   0.185658   0.435499
 Mulliken charges:
               1
     1  C   -0.385237
     2  H    0.224624
     3  H    0.197340
     4  H    0.197340
     5  O   -0.627789
     6  H    0.393721
 Sum of Mulliken charges =   0.00000
 Mulliken charges with hydrogens summed into heavy atoms:
               1
     1  C    0.234068
     5  O   -0.234068
 APT charges:
               1
     1  C    0.310468
     2  H    0.047342
     3  H   -0.003606
     4  H   -0.003605
     5  O   -0.578641
     6  H    0.228043
 Sum of APT charges =   0.00000
 APT charges with hydrogens summed into heavy atoms:
               1
     1  C    0.350599
     5  O   -0.350599
 Electronic spatial extent (au):  <R**2>=             98.2396
 Charge=              0.0000 electrons
 Dipole moment (field-independent basis, Debye):
    X=              2.0782    Y=             -2.0317    Z=              0.0003  Tot=              2.9063
 Quadrupole moment (field-independent basis, Debye-Ang):
   XX=            -13.1121   YY=            -12.1876   ZZ=            -13.9283
   XY=              2.8545   XZ=             -0.0003   YZ=             -0.0001
 Traceless Quadrupole moment (field-independent basis, Debye-Ang):
   XX=             -0.0361   YY=              0.8884   ZZ=             -0.8523
   XY=              2.8545   XZ=             -0.0003   YZ=             -0.0001
 Octapole moment (field-independent basis, Debye-Ang**2):
  XXX=             -2.3449  YYY=             -0.7285  ZZZ=              0.0004  XYY=             -0.9656
  XXY=             -3.3633  XXZ=              0.0003  XZZ=              0.8003  YZZ=             -1.1732
  YYZ=             -0.0002  XYZ=              0.0002
 Hexadecapole moment (field-independent basis, Debye-Ang**3):
 XXXX=            -79.6532 YYYY=            -20.2563 ZZZZ=            -20.3879 XXXY=              5.5210
 XXXZ=             -0.0011 YYYX=              3.8409 YYYZ=              0.0000 ZZZX=             -0.0005
 ZZZY=              0.0000 XXYY=            -15.1189 XXZZ=            -17.2401 YYZZ=             -6.9353
 XXYZ=             -0.0001 YYXZ=             -0.0006 ZZXY=             -0.1707
 N-N= 3.661456360852D+01 E-N=-3.442259453366D+02  KE= 1.146665752021D+02
  Exact polarizability:  24.269   0.270  17.229   0.000   0.000  15.760
 Approx polarizability:  25.980  -0.241  17.894   0.000   0.000  15.458
 Calling FoFJK, ICntrl=    100127 FMM=F ISym2X=0 I1Cent= 0 IOpClX= 0 NMat=1 NMatS=1 NMatT=0.
 Full mass-weighted force constant matrix:
 Low frequencies ---   -0.0019   -0.0018   -0.0008   45.9324  210.2040  246.1301
 Low frequencies ---  269.2833  502.5636  923.6083
 Diagonal vibrational polarizability:
        6.4164506       0.1873955      85.8927368
 Harmonic frequencies (cm**-1), IR intensities (KM/Mole), Raman scattering
 activities (A**4/AMU), depolarization ratios for plane and unpolarized
 incident light, reduced masses (AMU), force constants (mDyne/A),
 and normal coordinates:
                      1                      2                      3
                      A                      A                      A
 Frequencies --    232.0167               502.5620               923.5382
 Red. masses --      1.0727                 9.5476                 1.0583
 Frc consts  --      0.0340                 1.4208                 0.5318
 IR Inten    --    171.5077                47.5057                35.4631
  Atom  AN      X      Y      Z        X      Y      Z        X      Y      Z
     1   6     0.00   0.00  -0.01     0.63  -0.04   0.00    -0.02   0.06   0.00
     2   1     0.00   0.00  -0.28     0.32   0.04   0.00     0.63  -0.12   0.00
     3   1     0.01   0.23   0.11     0.29  -0.08   0.06    -0.31  -0.14  -0.03
     4   1    -0.01  -0.23   0.11     0.29  -0.08  -0.06    -0.31  -0.14   0.03
     5   8     0.00   0.00   0.07    -0.52   0.05   0.00    -0.02  -0.01   0.00
     6   1     0.00   0.00  -0.89    -0.13  -0.12   0.00     0.55  -0.23   0.00
                      4                      5                      6
                      A                      A                      A
 Frequencies --   1001.4205              1220.4924              1362.4909
 Red. masses --      1.1567                 1.1974                 1.1149
 Frc consts  --      0.6835                 1.0509                 1.2194
 IR Inten    --      0.7178                12.1772                 1.6445
  Atom  AN      X      Y      Z        X      Y      Z        X      Y      Z
     1   6     0.00   0.00   0.10     0.03   0.09   0.00    -0.09   0.01   0.00
     2   1     0.00   0.00  -0.18     0.41  -0.01   0.00     0.56  -0.17   0.00
     3   1     0.68  -0.06  -0.13    -0.25  -0.09  -0.02     0.54   0.07  -0.13
     4   1    -0.68   0.06  -0.13    -0.25  -0.09   0.02     0.54   0.07   0.13
     5   8     0.00   0.00  -0.05     0.03  -0.07   0.00    -0.03   0.00   0.00
     6   1     0.00   0.00  -0.05    -0.79   0.24   0.00    -0.10   0.02   0.00
                      7                      8                      9
                      A                      A                      A
 Frequencies --   1503.9160              1518.1621              3129.4981
 Red. masses --      1.0706                 1.0716                 1.0208
 Frc consts  --      1.4267                 1.4552                 5.8904
 IR Inten    --      8.3934                 9.0119                12.6468
  Atom  AN      X      Y      Z        X      Y      Z        X      Y      Z
     1   6     0.00  -0.08   0.00     0.00   0.00  -0.08    -0.03   0.01   0.00
     2   1     0.24  -0.12   0.00     0.00   0.00   0.77     0.12   0.47   0.00
     3   1    -0.12   0.55   0.38     0.22   0.38   0.10     0.14  -0.30   0.52
     4   1    -0.12   0.55  -0.38    -0.22  -0.38   0.10     0.14  -0.30  -0.52
     5   8     0.00  -0.01   0.00     0.00   0.00   0.00     0.00   0.00   0.00
     6   1    -0.03   0.01   0.00     0.00   0.00  -0.01     0.00   0.00   0.00
                     10                     11                     12
                      A                      A                      A
 Frequencies --   3259.9310              3281.9341              3732.3267
 Red. masses --      1.1121                 1.1105                 1.0671
 Frc consts  --      6.9633                 7.0471                 8.7582
 IR Inten    --     11.5616                 3.6996                18.3695
  Atom  AN      X      Y      Z        X      Y      Z        X      Y      Z
     1   6     0.00   0.00   0.10     0.01   0.10   0.00     0.00   0.00   0.00
     2   1     0.00   0.00   0.02    -0.23  -0.84   0.00    -0.01  -0.01   0.00
     3   1    -0.17   0.35  -0.59     0.08  -0.15   0.29     0.00   0.00   0.00
     4   1     0.17  -0.35  -0.59     0.08  -0.15  -0.29     0.00   0.00   0.00
     5   8     0.00   0.00   0.00     0.00   0.00   0.00     0.02   0.06   0.00
     6   1     0.00   0.00   0.00     0.00   0.02   0.00    -0.36  -0.93   0.00

 -------------------
 - Thermochemistry -
 -------------------
 Temperature   298.150 Kelvin.  Pressure   1.00000 Atm.
 Atom     1 has atomic number  6 and mass  12.00000
 Atom     2 has atomic number  1 and mass   1.00783
 Atom     3 has atomic number  1 and mass   1.00783
 Atom     4 has atomic number  1 and mass   1.00783
 Atom     5 has atomic number  8 and mass  15.99491
 Atom     6 has atomic number  1 and mass   1.00783
 Molecular mass:    32.02621 amu.
 Principal axes and moments of inertia in atomic units:
                           1         2         3
     Eigenvalues --    14.87895  96.59772  99.39911
           X            0.99929   0.03773  -0.00002
           Y           -0.03773   0.99929   0.00011
           Z            0.00002  -0.00011   1.00000
 This molecule is an asymmetric top.
 Rotational symmetry number  1.
 Rotational temperatures (Kelvin)      5.82123     0.89664     0.87137
 Rotational constants (GHZ):         121.29496    18.68306    18.15651
 Zero-point vibrational energy     129605.1 (Joules/Mol)
                                   30.97637 (Kcal/Mol)
 Warning -- explicit consideration of   2 degrees of freedom as
           vibrations may cause significant error
 Vibrational temperatures:    333.82   723.07  1328.76  1440.82  1756.01
          (Kelvin)           1960.32  2163.80  2184.29  4502.64  4690.31
                             4721.97  5369.98
 
 Zero-point correction=                           0.049364 (Hartree/Particle)
 Thermal correction to Energy=                    0.053051
 Thermal correction to Enthalpy=                  0.053995
 Thermal correction to Gibbs Free Energy=         0.026087
 Sum of electronic and zero-point Energies=           -115.547877
 Sum of electronic and thermal Energies=              -115.544190
 Sum of electronic and thermal Enthalpies=            -115.543246
 Sum of electronic and thermal Free Energies=         -115.571154
 
                     E (Thermal)             CV                S
                      KCal/Mol        Cal/Mol-Kelvin    Cal/Mol-Kelvin
 Total                   33.290             10.299             58.737
 Electronic               0.000              0.000              0.000
 Translational            0.889              2.981             36.324
 Rotational               0.889              2.981             19.597
 Vibrational             31.512              4.337              2.817
 Vibration     1          0.653              1.792              1.863
 Vibration     2          0.858              1.244              0.652
                       Q            Log10(Q)             Ln(Q)
 Total Bot       0.100224D-11        -11.999027        -27.628781
 Total V=0       0.509079D+11         10.706785         24.653285
 Vib (Bot)       0.328815D-22        -22.483048        -51.769131
 Vib (Bot)    1  0.848146D+00         -0.071529         -0.164702
 Vib (Bot)    2  0.326286D+00         -0.486401         -1.119980
 Vib (V=0)       0.167019D+01          0.222765          0.512935
 Vib (V=0)    1  0.148456D+01          0.171597          0.395116
 Vib (V=0)    2  0.109704D+01          0.040224          0.092620
 Electronic      0.100000D+01          0.000000          0.000000
 Translational   0.712383D+07          6.852714         15.778956
 Rotational      0.427865D+04          3.631307          8.361394
                           ----------------------------
                           ! Normal Mode     1        !
 --------------------------                            --------------------------
 ! Name  Definition              Value          Relative Weight (%)             !
 --------------------------------------------------------------------------------
 ! D1    D(2,1,5,6)              0.675                  32.3                    !
 ! D2    D(3,1,5,6)              0.677                  32.4                    !
 ! D3    D(4,1,5,6)              0.677                  32.4                    !
 --------------------------------------------------------------------------------
                           ----------------------------
                           ! Normal Mode     2        !
 --------------------------                            --------------------------
 ! Name  Definition              Value          Relative Weight (%)             !
 --------------------------------------------------------------------------------
 ! R4    R(1,5)                  1.1583                 48.6                    !
 ! A1    A(2,1,3)                0.1344                  5.6                    !
 ! A2    A(2,1,4)                0.1344                  5.6                    !
 ! A3    A(2,1,5)               -0.1528                  6.4                    !
 ! A4    A(3,1,4)                0.1369                  5.7                    !
 ! A5    A(3,1,5)               -0.1713                  7.2                    !
 ! A6    A(4,1,5)               -0.1713                  7.2                    !
 ! A7    A(1,5,6)               -0.2297                  9.6                    !
 --------------------------------------------------------------------------------
                           ----------------------------
                           ! Normal Mode     3        !
 --------------------------                            --------------------------
 ! Name  Definition              Value          Relative Weight (%)             !
 --------------------------------------------------------------------------------
 ! A3    A(2,1,5)                0.3462                 27.7                    !
 ! A5    A(3,1,5)               -0.1486                 11.9                    !
 ! A6    A(4,1,5)               -0.1486                 11.9                    !
 ! A7    A(1,5,6)               -0.3142                 25.1                    !
 ! D2    D(3,1,5,6)              0.1093                  8.7                    !
 ! D3    D(4,1,5,6)             -0.1093                  8.7                    !
 --------------------------------------------------------------------------------
                           ----------------------------
                           ! Normal Mode     4        !
 --------------------------                            --------------------------
 ! Name  Definition              Value          Relative Weight (%)             !
 --------------------------------------------------------------------------------
 ! A1    A(2,1,3)               -0.0564                  4.8                    !
 ! A2    A(2,1,4)                0.0564                  4.8                    !
 ! A5    A(3,1,5)               -0.384                  32.6                    !
 ! A6    A(4,1,5)                0.3841                 32.6                    !
 ! D1    D(2,1,5,6)              0.1371                 11.6                    !
 ! D2    D(3,1,5,6)             -0.0751                  6.4                    !
 ! D3    D(4,1,5,6)             -0.0751                  6.4                    !
 --------------------------------------------------------------------------------
                           ----------------------------
                           ! Normal Mode     5        !
 --------------------------                            --------------------------
 ! Name  Definition              Value          Relative Weight (%)             !
 --------------------------------------------------------------------------------
 ! A1    A(2,1,3)               -0.0539                  3.7                    !
 ! A2    A(2,1,4)               -0.0539                  3.7                    !
 ! A3    A(2,1,5)               -0.2398                 16.3                    !
 ! A5    A(3,1,5)                0.1594                 10.9                    !
 ! A6    A(4,1,5)                0.1594                 10.9                    !
 ! A7    A(1,5,6)               -0.5229                 35.6                    !
 ! D2    D(3,1,5,6)             -0.1067                  7.3                    !
 ! D3    D(4,1,5,6)              0.1067                  7.3                    !
 --------------------------------------------------------------------------------
                           ----------------------------
                           ! Normal Mode     6        !
 --------------------------                            --------------------------
 ! Name  Definition              Value          Relative Weight (%)             !
 --------------------------------------------------------------------------------
 ! R4    R(1,5)                 -0.0653                  3.4                    !
 ! A1    A(2,1,3)               -0.2609                 13.4                    !
 ! A2    A(2,1,4)               -0.261                  13.4                    !
 ! A3    A(2,1,5)                0.3317                 17.1                    !
 ! A4    A(3,1,4)               -0.2649                 13.6                    !
 ! A5    A(3,1,5)                0.3153                 16.2                    !
 ! A6    A(4,1,5)                0.3153                 16.2                    !
 --------------------------------------------------------------------------------
                           ----------------------------
                           ! Normal Mode     7        !
 --------------------------                            --------------------------
 ! Name  Definition              Value          Relative Weight (%)             !
 --------------------------------------------------------------------------------
 ! A1    A(2,1,3)               -0.3465                 14.2                    !
 ! A2    A(2,1,4)               -0.3464                 14.2                    !
 ! A3    A(2,1,5)                0.0979                  4.0                    !
 ! A4    A(3,1,4)                0.6958                 28.6                    !
 ! A5    A(3,1,5)               -0.0738                  3.0                    !
 ! A6    A(4,1,5)               -0.0739                  3.0                    !
 ! D2    D(3,1,5,6)             -0.3707                 15.2                    !
 ! D3    D(4,1,5,6)              0.3706                 15.2                    !
 --------------------------------------------------------------------------------
                           ----------------------------
                           ! Normal Mode     8        !
 --------------------------                            --------------------------
 ! Name  Definition              Value          Relative Weight (%)             !
 --------------------------------------------------------------------------------
 ! A1    A(2,1,3)               -0.604                  26.5                    !
 ! A2    A(2,1,4)                0.6041                 26.5                    !
 ! D1    D(2,1,5,6)              0.4104                 18.0                    !
 ! D2    D(3,1,5,6)             -0.2352                 10.3                    !
 ! D3    D(4,1,5,6)             -0.2352                 10.3                    !
 --------------------------------------------------------------------------------
                           ----------------------------
                           ! Normal Mode     9        !
 --------------------------                            --------------------------
 ! Name  Definition              Value          Relative Weight (%)             !
 --------------------------------------------------------------------------------
 ! R1    R(1,2)                 -0.4863                 26.5                    !
 ! R2    R(1,3)                 -0.6298                 34.4                    !
 ! R3    R(1,4)                 -0.6301                 34.4                    !
 --------------------------------------------------------------------------------
                           ----------------------------
                           ! Normal Mode    10        !
 --------------------------                            --------------------------
 ! Name  Definition              Value          Relative Weight (%)             !
 --------------------------------------------------------------------------------
 ! R2    R(1,3)                  0.7851                 42.6                    !
 ! R3    R(1,4)                 -0.7853                 42.6                    !
 ! A1    A(2,1,3)               -0.0433                  2.3                    !
 ! A2    A(2,1,4)                0.0433                  2.3                    !
 ! A5    A(3,1,5)               -0.0438                  2.4                    !
 ! A6    A(4,1,5)                0.0438                  2.4                    !
 ! D1    D(2,1,5,6)              0.0325                  1.8                    !
 ! D2    D(3,1,5,6)             -0.0328                  1.8                    !
 ! D3    D(4,1,5,6)             -0.0327                  1.8                    !
 --------------------------------------------------------------------------------
                           ----------------------------
                           ! Normal Mode    11        !
 --------------------------                            --------------------------
 ! Name  Definition              Value          Relative Weight (%)             !
 --------------------------------------------------------------------------------
 ! R1    R(1,2)                  0.9676                 46.7                    !
 ! R2    R(1,3)                 -0.3824                 18.5                    !
 ! R3    R(1,4)                 -0.3816                 18.4                    !
 ! A1    A(2,1,3)               -0.0285                  1.4                    !
 ! A2    A(2,1,4)               -0.0285                  1.4                    !
 ! A3    A(2,1,5)               -0.0448                  2.2                    !
 ! A4    A(3,1,4)                0.0504                  2.4                    !
 ! A7    A(1,5,6)               -0.0345                  1.7                    !
 ! D2    D(3,1,5,6)             -0.0429                  2.1                    !
 ! D3    D(4,1,5,6)              0.0429                  2.1                    !
 --------------------------------------------------------------------------------
                           ----------------------------
                           ! Normal Mode    12        !
 --------------------------                            --------------------------
 ! Name  Definition              Value          Relative Weight (%)             !
 --------------------------------------------------------------------------------
 ! R5    R(5,6)                 -1.0607                 91.0                    !
 --------------------------------------------------------------------------------
 ***** Axes restored to original set *****
 -------------------------------------------------------------------
 Center     Atomic                   Forces (Hartrees/Bohr)
 Number     Number              X              Y              Z
 -------------------------------------------------------------------
      1        6          -0.070863809    0.003133587   -0.000001765
      2        1           0.000047903   -0.000011427   -0.000000012
      3        1           0.000022055   -0.000009677   -0.000008768
      4        1           0.000021899   -0.000009670    0.000008769
      5        8           0.070763095   -0.003178002    0.000001841
      6        1           0.000008857    0.000075188   -0.000000066
 -------------------------------------------------------------------
 Cartesian Forces:  Max     0.070863809 RMS     0.023627930
 FormGI is forming the generalized inverse of G from B-inverse, IUseBI=4.

 GradGradGradGradGradGradGradGradGradGradGradGradGradGradGradGradGradGrad
 Berny optimization.
 Internal  Forces:  Max     0.070852272 RMS     0.018293995
 Search for a local minimum.
 Step number   1 out of a maximum of    2
 All quantities printed in internal units (Hartrees-Bohrs-Radians)
 Second derivative matrix not updated -- analytic derivatives used.
 The second derivative matrix:
                          R1        R2        R3        R4        R5
           R1           0.37257
           R2           0.00072   0.36496
           R3           0.00072   0.00075   0.36495
           R4           0.00159   0.00360   0.00360   0.09630
           R5          -0.00140   0.00043   0.00043  -0.00613   0.49974
           A1           0.00701   0.00847  -0.00587  -0.02192  -0.00001
           A2           0.00701  -0.00587   0.00847  -0.02192  -0.00001
           A3          -0.00108  -0.00446  -0.00446   0.02985   0.00260
           A4          -0.00550   0.00833   0.00833  -0.02158   0.00054
           A5          -0.00433  -0.00474  -0.00451   0.02510  -0.00157
           A6          -0.00433  -0.00451  -0.00474   0.02510  -0.00157
           A7           0.00138   0.00030   0.00030   0.03419   0.01222
           D1           0.00000  -0.00569   0.00569   0.00000   0.00000
           D2           0.00565  -0.00011  -0.00462  -0.00116   0.00055
           D3          -0.00565   0.00462   0.00011   0.00116  -0.00055
                          A1        A2        A3        A4        A5
           A1           0.06541
           A2          -0.00121   0.06541
           A3          -0.03469  -0.03469   0.12538
           A4          -0.00004  -0.00004  -0.00962   0.06505
           A5          -0.03320  -0.00932  -0.01313  -0.03612   0.12210
           A6          -0.00932  -0.03320  -0.01313  -0.03612  -0.01395
           A7          -0.00636  -0.00636   0.02596  -0.00049  -0.00464
           D1          -0.02130   0.02130   0.00000   0.00000  -0.01050
           D2           0.02302   0.00062   0.01297  -0.01844  -0.00600
           D3          -0.00062  -0.02302  -0.01297   0.01844   0.01126
                          A6        A7        D1        D2        D3
           A6           0.12209
           A7          -0.00464   0.14968
           D1           0.01050   0.00000   0.01927
           D2          -0.01126   0.00286  -0.00855   0.02065
           D3           0.00600  -0.00286  -0.00855  -0.01074   0.02065
 ITU=  0
     Eigenvalues ---    0.00149   0.08459   0.08565   0.12106   0.14365
     Eigenvalues ---    0.15681   0.17872   0.36526   0.36681   0.37362
     Eigenvalues ---    0.500231000.000001000.000001000.000001000.00000
 Angle between quadratic step and forces=  22.29 degrees.
 Linear search not attempted -- first point.
 Iteration  1 RMS(Cart)=  0.00013885 RMS(Int)=  0.00000003
 Iteration  2 RMS(Cart)=  0.00000002 RMS(Int)=  0.00000002
 Iteration  1 RMS(Cart)=  0.00000000 RMS(Int)=  0.00000000
 Variable       Old X    -DE/DX   Delta X   Delta X   Delta X     New X
                                 (Linear)    (Quad)   (Total)
    R1        2.05491   0.00001   0.00000   0.00003   0.00003   2.05494
    R2        2.06155   0.00000   0.00000   0.00001   0.00001   2.06156
    R3        2.06155   0.00000   0.00000   0.00001   0.00001   2.06156
    R4        3.21253  -0.07085   0.00000   0.00000   0.00000   3.21253
    R5        1.84438  -0.00005   0.00000  -0.00010  -0.00010   1.84428
    A1        1.97673  -0.00003   0.00000  -0.00018  -0.00018   1.97655
    A2        1.97673  -0.00003   0.00000  -0.00018  -0.00018   1.97655
    A3        1.76384   0.00003   0.00000   0.00018   0.00018   1.76402
    A4        1.99309  -0.00003   0.00000  -0.00019  -0.00019   1.99290
    A5        1.86537   0.00004   0.00000   0.00025   0.00025   1.86562
    A6        1.86537   0.00004   0.00000   0.00025   0.00025   1.86562
    A7        1.84663  -0.00001   0.00000  -0.00011  -0.00011   1.84652
    D1       -3.14158   0.00000   0.00000  -0.00003  -0.00003   3.14158
    D2       -1.07039   0.00000   0.00000  -0.00005  -0.00005  -1.07044
    D3        1.07042   0.00000   0.00000   0.00000   0.00000   1.07042
         Item               Value     Threshold  Converged?
 Maximum Force            0.000051     0.000450     YES
 RMS     Force            0.000026     0.000300     YES
 Maximum Displacement     0.000261     0.001800     YES
 RMS     Displacement     0.000139     0.001200     YES
 Predicted change in Energy=-2.362208D-08
 Optimization completed.
    -- Stationary point found.
                           ----------------------------
                           !   Optimized Parameters   !
                           ! (Angstroms and Degrees)  !
 --------------------------                            --------------------------
 ! Name  Definition              Value          Derivative Info.                !
 --------------------------------------------------------------------------------
 ! R1    R(1,2)                  1.0874         -DE/DX =    0.0                 !
 ! R2    R(1,3)                  1.0909         -DE/DX =    0.0                 !
 ! R3    R(1,4)                  1.0909         -DE/DX =    0.0                 !
 ! R4    R(1,5)                  1.7            -DE/DX =   -0.0709              !
 ! R5    R(5,6)                  0.976          -DE/DX =   -0.0001              !
 ! A1    A(2,1,3)              113.2584         -DE/DX =    0.0                 !
 ! A2    A(2,1,4)              113.2585         -DE/DX =    0.0                 !
 ! A3    A(2,1,5)              101.0604         -DE/DX =    0.0                 !
 ! A4    A(3,1,4)              114.1958         -DE/DX =    0.0                 !
 ! A5    A(3,1,5)              106.878          -DE/DX =    0.0                 !
 ! A6    A(4,1,5)              106.878          -DE/DX =    0.0                 !
 ! A7    A(1,5,6)              105.8039         -DE/DX =    0.0                 !
 ! D1    D(2,1,5,6)            180.0009         -DE/DX =    0.0                 !
 ! D2    D(3,1,5,6)            -61.3286         -DE/DX =    0.0                 !
 ! D3    D(4,1,5,6)             61.3304         -DE/DX =    0.0                 !
 --------------------------------------------------------------------------------
 GradGradGradGradGradGradGradGradGradGradGradGradGradGradGradGradGradGrad

 1\1\GINC-CASCADE-022\Freq\RBMK\6-31+G\C1H4O1\FARRUGMA\29-Jul-2022\0\\#
 N Geom=AllCheck Guess=TCheck SCRF=Check GenChk RBMK/6-31+G Freq\\Title
  Card Required\\0,1\C,0.8117221488,-0.0007874813,-0.0000034846\H,1.067
 7770956,1.056047751,-0.0000990241\H,1.1057583492,-0.5151932726,0.91599
 40955\H,1.1057964352,-0.5153685634,-0.9158902193\O,-0.8865825007,0.075
 1160041,-0.0000465772\H,-1.194056948,-0.8511874078,0.0000504797\\Versi
 on=ES64L-G09RevD.01\State=1-A\HF=-115.5972407\RMSD=5.708e-10\RMSF=2.36
 3e-02\ZeroPoint=0.049364\Thermal=0.0530505\Dipole=0.8460459,-0.7691791
 ,0.0001035\DipoleDeriv=0.5477354,-0.0121441,0.000008,0.1279642,0.15113
 39,0.0000102,-0.0000057,0.0000078,0.232534,0.0536123,-0.0140836,-0.000
 0001,-0.0441246,-0.0221336,0.0000113,0.0000027,0.000012,0.1105477,-0.0
 40833,0.0206573,-0.0340867,0.0332648,0.0537991,0.0702413,-0.0432233,0.
 0684747,-0.0237844,-0.0408354,0.0206667,0.0340816,0.0332748,0.0537725,
 -0.0702528,0.0432147,-0.0684875,-0.0237524,-0.7532657,-0.0051692,0.,-0
 .1871856,-0.2586969,-0.0000563,0.0000197,-0.0000521,-0.7239618,0.23358
 64,-0.0099271,-0.0000028,0.0368064,0.0221251,0.0000463,-0.000008,0.000
 0451,0.4284168\Polar=24.2405696,0.5243478,17.2580055,0.0001174,-0.0001
 692,15.7596603\PG=C01 [X(C1H4O1)]\NImag=0\\0.20310912,0.00677564,0.653
 31968,-0.00000766,-0.00000620,0.63151659,-0.05202259,-0.06318908,0.000
 00594,0.06463849,-0.06832115,-0.33944595,0.00002497,0.07128894,0.35610
 916,0.00000650,0.00002517,-0.05418904,-0.00000647,-0.00002683,0.049977
 45,-0.05944739,0.03426707,-0.06461814,0.00575498,-0.00353694,0.0076091
 7,0.06762490,0.03513717,-0.12092449,0.11553706,0.00905886,-0.01032829,
 0.02751927,-0.03817507,0.12024208,-0.06184336,0.11660526,-0.26292257,0
 .00033699,-0.00307457,0.00211154,0.06760439,-0.12610048,0.27393131,-0.
 05944993,0.03428337,0.06461803,0.00575530,-0.00353851,-0.00760828,0.00
 657007,-0.00463740,-0.00764910,0.06762791,0.03515294,-0.12096608,-0.11
 555797,0.00905985,-0.01033300,-0.02751658,-0.00463657,0.00894631,0.014
 76143,-0.03819223,0.12028756,0.06184309,-0.11662627,-0.26286474,-0.000
 33856,0.00307684,0.00211602,0.00765099,-0.01476665,-0.01741969,-0.0676
 0368,0.12612351,0.27386924,-0.02184567,0.01886168,-0.00000138,-0.01611
 592,0.00245480,-0.00000059,-0.02118383,-0.00101047,0.00230515,-0.02118
 437,-0.00101099,-0.00230599,0.15649372,-0.01776051,-0.07404736,0.00000
 227,-0.02804120,0.00286899,-0.00000096,0.01156704,0.00161322,-0.001854
 57,0.01156995,0.00161391,0.00185569,0.13417163,0.52270516,0.00000267,0
 .00000305,-0.05112670,0.00000254,-0.00000029,-0.00004575,-0.01658724,-
 0.00173536,0.00477098,0.01658390,0.00173594,0.00477085,-0.00001426,-0.
 00005216,0.04182547,-0.01034355,-0.03099868,0.00000321,-0.00801026,0.0
 0165286,-0.00000033,0.00068126,-0.00037308,-0.00075407,0.00068102,-0.0
 0037300,0.00075416,-0.07616394,-0.11150693,0.00001240,0.09315549,0.009
 01592,0.00206421,-0.00000012,0.00182264,0.00112909,-0.00000007,0.00051
 446,0.00045118,-0.00033706,0.00051482,0.00045130,0.00033688,-0.1534666
 6,-0.45475392,0.00004882,0.14159883,0.45065815,-0.00000124,-0.00000100
 ,-0.00041354,-0.00000044,-0.00000011,0.00002978,-0.00165916,-0.0004538
 4,-0.00047157,0.00165913,0.00045367,-0.00047168,0.00001707,0.00004973,
 -0.00019486,-0.00001537,-0.00004844,0.00152187\\0.07086381,-0.00313359
 ,0.00000176,-0.00004790,0.00001143,0.00000001,-0.00002205,0.00000968,0
 .00000877,-0.00002190,0.00000967,-0.00000877,-0.07076310,0.00317800,-0
 .00000184,-0.00000886,-0.00007519,0.00000007\\\@


 IBM COMPATIBILITY IS LIKE PREGNANCY. YOU ARE OR
 OR YOU ARE NOT. -- ADAM OSBORNE
 Job cpu time:       0 days  0 hours  0 minutes  8.2 seconds.
 File lengths (MBytes):  RWF=     42 Int=      0 D2E=      0 Chk=      1 Scr=      1
 Normal termination of Gaussian 09 at Fri Jul 29 14:55:42 2022.
