Gaussian input prepared by ASE                                          
FOpt      RBMK                                                        6-31+G              
Number of atoms                            I               22
Info1-9                                    I   N=           9
          32          32           0           0           0         110
           2          18        -402
Full Title                                 C   N=           3
Gaussian input prepared by ASE      
Route                                      C   N=           3
#P bmk/6-31+g opt(modredun,calcfc)  
Charge                                     I                0
Multiplicity                               I                1
Number of electrons                        I               78
Number of alpha electrons                  I               39
Number of beta electrons                   I               39
Number of basis functions                  I              154
Number of independent functions            I              154
Number of point charges in /Mol/           I                0
Number of translation vectors              I                0
Atomic numbers                             I   N=          22
           6           1           1           1           6           8
           7           1           6           1           6           1
           1           1           6           8           7           1
           6           1           1           1
Nuclear charges                            R   N=          22
  6.00000000E+00  1.00000000E+00  1.00000000E+00  1.00000000E+00  6.00000000E+00
  8.00000000E+00  7.00000000E+00  1.00000000E+00  6.00000000E+00  1.00000000E+00
  6.00000000E+00  1.00000000E+00  1.00000000E+00  1.00000000E+00  6.00000000E+00
  8.00000000E+00  7.00000000E+00  1.00000000E+00  6.00000000E+00  1.00000000E+00
  1.00000000E+00  1.00000000E+00
Current cartesian coordinates              R   N=          66
 -6.38429423E+00 -2.15025035E+00  1.27143052E-01 -5.56895822E+00 -3.95980930E+00
  7.17117908E-01 -7.63527689E+00 -1.45079750E+00  1.62702933E+00 -7.53221431E+00
 -2.43033077E+00 -1.57344542E+00 -4.39174421E+00 -1.55500526E-01 -4.24508023E-01
 -4.94445522E+00  1.90584591E+00 -1.43082641E+00 -1.98223680E+00 -7.25085737E-01
  2.59863521E-01 -1.49845882E+00 -2.42175391E+00  1.00418391E+00  9.63980020E-02
  1.02242864E+00 -1.57994132E-01 -9.45439494E-02  1.81918938E+00 -2.06946410E+00
  7.90750077E-02  3.21701338E+00  1.78770808E+00  1.61624637E+00  4.56096070E+00
  1.41616878E+00 -1.72834386E+00  4.21708531E+00  1.64058424E+00  2.97645937E-01
  2.46357077E+00  3.70779540E+00  2.54695369E+00 -5.21054645E-01  4.00913599E-02
  2.56331968E+00 -2.68521617E+00  9.75935148E-01  4.67650472E+00  6.18297367E-01
 -8.06397852E-01  4.56972716E+00  2.34692503E+00 -1.60226409E+00  7.13345732E+00
 -6.31199360E-01 -6.41599388E-01  8.59924221E+00  6.87004079E-01 -1.26282527E+00
  7.50859442E+00 -1.21243922E+00  1.31092328E+00  7.17647535E+00 -2.32574676E+00
 -1.83597924E+00
Number of symbols in /Mol/                 I                0
Redundant internal dimensions              I   N=           4
          98          21          36          41
Redundant internal coordinate indices      I   N=         392
           1           2           0           0           1           3
           0           0           1           4           0           0
           1           5           0           0           5           6
           0           0           5           7           0           0
           7           8           0           0           7           9
           0           0           9          10           0           0
           9          11           0           0           9          15
           0           0          11          12           0           0
          11          13           0           0          11          14
           0           0          15          16           0           0
          15          17           0           0          17          18
           0           0          17          19           0           0
          19          20           0           0          19          21
           0           0          19          22           0           0
           2           1           3           0           2           1
           4           0           2           1           5           0
           3           1           4           0           3           1
           5           0           4           1           5           0
           1           5           6           0           1           5
           7           0           6           5           7           0
           5           7           8           0           5           7
           9           0           8           7           9           0
           7           9          10           0           7           9
          11           0           7           9          15           0
          10           9          11           0          10           9
          15           0          11           9          15           0
           9          11          12           0           9          11
          13           0           9          11          14           0
          12          11          13           0          12          11
          14           0          13          11          14           0
           9          15          16           0           9          15
          17           0          16          15          17           0
          15          17          18           0          15          17
          19           0          18          17          19           0
          17          19          20           0          17          19
          21           0          17          19          22           0
          20          19          21           0          20          19
          22           0          21          19          22           0
           2           1           5           6           2           1
           5           7           3           1           5           6
           3           1           5           7           4           1
           5           6           4           1           5           7
           1           5           7           8           1           5
           7           9           6           5           7           8
           6           5           7           9           5           7
           9          10           5           7           9          11
           5           7           9          15           8           7
           9          10           8           7           9          11
           8           7           9          15           7           9
          11          12           7           9          11          13
           7           9          11          14          10           9
          11          12          10           9          11          13
          10           9          11          14          15           9
          11          12          15           9          11          13
          15           9          11          14           7           9
          15          16           7           9          15          17
          10           9          15          16          10           9
          15          17          11           9          15          16
          11           9          15          17           9          15
          17          18           9          15          17          19
          16          15          17          18          16          15
          17          19          15          17          19          20
          15          17          19          21          15          17
          19          22          18          17          19          20
          18          17          19          21          18          17
          19          22
Redundant internal coordinates             R   N=          98
  2.07059093E+00  2.07457242E+00  2.07078891E+00  2.87290817E+00  2.35951590E+00
  2.56875800E+00  1.91487255E+00  2.74756877E+00  2.07966439E+00  2.93296086E+00
  2.90289539E+00  2.07536301E+00  2.07088200E+00  2.07417076E+00  2.35789452E+00
  2.55922930E+00  1.90603203E+00  2.76134328E+00  2.06690765E+00  2.07145176E+00
  2.07361633E+00  1.90296774E+00  1.91141769E+00  1.96969768E+00  1.88080412E+00
  1.89964577E+00  1.89725464E+00  2.12470780E+00  2.03247545E+00  2.12594245E+00
  2.13768183E+00  2.12714334E+00  2.01698227E+00  1.89019437E+00  1.95039104E+00
  1.86512368E+00  1.89919554E+00  1.92189770E+00  1.93645603E+00  1.94057341E+00
  1.89586071E+00  1.91950740E+00  1.89758204E+00  1.89959334E+00  1.91044781E+00
  2.11877226E+00  2.02992032E+00  2.13425917E+00  2.08891965E+00  2.11670255E+00
  2.07732534E+00  1.90124814E+00  1.92235120E+00  1.93249166E+00  1.91115680E+00
  1.91064945E+00  1.88584361E+00  2.97574232E+00 -1.77385280E-01 -1.19242900E+00
  1.93762871E+00  8.51690998E-01 -2.30143660E+00  6.14159244E-02 -3.13908437E+00
 -3.09172050E+00 -9.03547900E-03 -7.64721147E-01  1.32700135E+00 -2.83478570E+00
  2.32178939E+00 -1.86967342E+00  2.51724836E-01 -3.10736673E+00 -1.01996977E+00
  1.07052053E+00 -1.02094325E+00  1.06645371E+00 -3.12624130E+00  1.09615720E+00
 -3.09963115E+00 -1.00914085E+00 -2.57205657E-01  2.90710418E+00 -2.30650541E+00
  8.57804434E-01  1.87297824E+00 -1.24589722E+00 -5.79276672E-02  3.10732961E+00
  3.10660175E+00 -1.13262760E-02 -3.04938261E+00 -9.52984936E-01  1.13179653E+00
  1.15720830E-01  2.21211850E+00 -1.98628534E+00
ZRed-IntVec                                I   N=          98
           0           0           0           0           0           0
           0           0           0           0           0           0
           0           0           0           0           0           0
           0           0           0           0           0           0
           0           0           0           0           0           0
           0           0           0           0           0           0
           0           0           0           0           0           0
           0           0           0           0           0           0
           0           0           0           0           0           0
           0           0           0           0           0           0
           0           0           0           0           0           0
           0           0           0           0           0           0
           0           0           0           0           0           0
           0           0           0           0           0           0
           0           0           0           0           0           0
           0           0           0           0           0           0
           0           0
ZRed-FPVec                                 R   N=          98
  0.00000000E+00  0.00000000E+00  0.00000000E+00  0.00000000E+00  0.00000000E+00
  0.00000000E+00  0.00000000E+00  0.00000000E+00  0.00000000E+00  0.00000000E+00
  0.00000000E+00  0.00000000E+00  0.00000000E+00  0.00000000E+00  0.00000000E+00
  0.00000000E+00  0.00000000E+00  0.00000000E+00  0.00000000E+00  0.00000000E+00
  0.00000000E+00  0.00000000E+00  0.00000000E+00  0.00000000E+00  0.00000000E+00
  0.00000000E+00  0.00000000E+00  0.00000000E+00  0.00000000E+00  0.00000000E+00
  0.00000000E+00  0.00000000E+00  0.00000000E+00  0.00000000E+00  0.00000000E+00
  0.00000000E+00  0.00000000E+00  0.00000000E+00  0.00000000E+00  0.00000000E+00
  0.00000000E+00  0.00000000E+00  0.00000000E+00  0.00000000E+00  0.00000000E+00
  0.00000000E+00  0.00000000E+00  0.00000000E+00  0.00000000E+00  0.00000000E+00
  0.00000000E+00  0.00000000E+00  0.00000000E+00  0.00000000E+00  0.00000000E+00
  0.00000000E+00  0.00000000E+00  0.00000000E+00  0.00000000E+00  0.00000000E+00
  0.00000000E+00  0.00000000E+00  0.00000000E+00  0.00000000E+00  0.00000000E+00
  0.00000000E+00  0.00000000E+00  0.00000000E+00  0.00000000E+00  0.00000000E+00
  0.00000000E+00  0.00000000E+00  0.00000000E+00  0.00000000E+00  0.00000000E+00
  0.00000000E+00  0.00000000E+00  0.00000000E+00  0.00000000E+00  0.00000000E+00
  0.00000000E+00  0.00000000E+00  0.00000000E+00  0.00000000E+00  0.00000000E+00
  0.00000000E+00  0.00000000E+00  0.00000000E+00  0.00000000E+00  0.00000000E+00
  0.00000000E+00  0.00000000E+00  0.00000000E+00  0.00000000E+00  0.00000000E+00
  0.00000000E+00  0.00000000E+00  0.00000000E+00
ZRed-Constraint1                           R   N=          98
  2.07005417E+00  2.07450362E+00  2.07166566E+00  2.87344836E+00  2.35903831E+00
  2.56973295E+00  1.91447538E+00  2.74779241E+00  2.08038679E+00  2.93465707E+00
  2.90314463E+00  2.07369440E+00  2.07165445E+00  2.07389845E+00  2.35698625E+00
  2.55966108E+00  1.90483457E+00  2.76099077E+00  2.06761775E+00  2.07140621E+00
  2.07309589E+00  1.90356873E+00  1.91127803E+00  1.97010676E+00  1.88081933E+00
  1.89919028E+00  1.89680419E+00  2.12564711E+00  2.03152917E+00  2.12596122E+00
  2.13884208E+00  2.12628027E+00  2.01667497E+00  1.89112457E+00  1.95051536E+00
  1.86517577E+00  1.89892187E+00  1.92166473E+00  1.93589308E+00  1.94081140E+00
  1.89466444E+00  1.91943926E+00  1.89839626E+00  1.89985920E+00  1.91040027E+00
  2.11852579E+00  2.03004120E+00  2.13438071E+00  2.08935106E+00  2.11593426E+00
  2.07766871E+00  1.90050712E+00  1.92254915E+00  1.93309347E+00  1.91031856E+00
  1.91097794E+00  1.88628976E+00  2.97433887E+00 -1.77584844E-01 -1.19312198E+00
  1.93813961E+00  8.50512995E-01 -2.30141072E+00  6.12406908E-02 -3.13948605E+00
 -3.09068503E+00 -8.22646216E-03 -7.64887759E-01  1.32717674E+00 -2.83519559E+00
  2.32146012E+00 -1.86966069E+00  2.51152287E-01 -3.10772649E+00 -1.01994368E+00
  1.06971721E+00 -1.02024984E+00  1.06753297E+00 -3.12599145E+00  1.09602683E+00
 -3.09937567E+00 -1.00971478E+00 -2.57157478E-01  2.90734627E+00 -2.30747026E+00
  8.57033482E-01  1.87287607E+00 -1.24580549E+00 -5.74051804E-02  3.10752277E+00
  3.10732527E+00 -1.09320831E-02 -3.04864413E+00 -9.53615493E-01  1.13223058E+00
  1.16130829E-01  2.21115947E+00 -1.98617977E+00
ZRed-Constraint2                           R   N=          98
  0.00000000E+00  0.00000000E+00  0.00000000E+00  0.00000000E+00  0.00000000E+00
  0.00000000E+00  0.00000000E+00  0.00000000E+00  0.00000000E+00  0.00000000E+00
  0.00000000E+00  0.00000000E+00  0.00000000E+00  0.00000000E+00  0.00000000E+00
  0.00000000E+00  0.00000000E+00  0.00000000E+00  0.00000000E+00  0.00000000E+00
  0.00000000E+00  0.00000000E+00  0.00000000E+00  0.00000000E+00  0.00000000E+00
  0.00000000E+00  0.00000000E+00  0.00000000E+00  0.00000000E+00  0.00000000E+00
  0.00000000E+00  0.00000000E+00  0.00000000E+00  0.00000000E+00  0.00000000E+00
  0.00000000E+00  0.00000000E+00  0.00000000E+00  0.00000000E+00  0.00000000E+00
  0.00000000E+00  0.00000000E+00  0.00000000E+00  0.00000000E+00  0.00000000E+00
  0.00000000E+00  0.00000000E+00  0.00000000E+00  0.00000000E+00  0.00000000E+00
  0.00000000E+00  0.00000000E+00  0.00000000E+00  0.00000000E+00  0.00000000E+00
  0.00000000E+00  0.00000000E+00  0.00000000E+00  0.00000000E+00  0.00000000E+00
  0.00000000E+00  0.00000000E+00  0.00000000E+00  0.00000000E+00  0.00000000E+00
  0.00000000E+00  0.00000000E+00  0.00000000E+00  0.00000000E+00  0.00000000E+00
  0.00000000E+00  0.00000000E+00  0.00000000E+00  0.00000000E+00  0.00000000E+00
  0.00000000E+00  0.00000000E+00  0.00000000E+00  0.00000000E+00  0.00000000E+00
  0.00000000E+00  0.00000000E+00  0.00000000E+00  0.00000000E+00  0.00000000E+00
  0.00000000E+00  0.00000000E+00  0.00000000E+00  0.00000000E+00  0.00000000E+00
  0.00000000E+00  0.00000000E+00  0.00000000E+00  0.00000000E+00  0.00000000E+00
  0.00000000E+00  0.00000000E+00  0.00000000E+00
Force Field                                I                0
Atom Types                                 C   N=          22
                                                            
                                                            
                                                            
                                                            
                        
Int Atom Types                             I   N=          22
           0           0           0           0           0           0
           0           0           0           0           0           0
           0           0           0           0           0           0
           0           0           0           0
MM charges                                 R   N=          22
  0.00000000E+00  0.00000000E+00  0.00000000E+00  0.00000000E+00  0.00000000E+00
  0.00000000E+00  0.00000000E+00  0.00000000E+00  0.00000000E+00  0.00000000E+00
  0.00000000E+00  0.00000000E+00  0.00000000E+00  0.00000000E+00  0.00000000E+00
  0.00000000E+00  0.00000000E+00  0.00000000E+00  0.00000000E+00  0.00000000E+00
  0.00000000E+00  0.00000000E+00
Integer atomic weights                     I   N=          22
          12           1           1           1          12          16
          14           1          12           1          12           1
           1           1          12          16          14           1
          12           1           1           1
Real atomic weights                        R   N=          22
  1.20000000E+01  1.00782504E+00  1.00782504E+00  1.00782504E+00  1.20000000E+01
  1.59949146E+01  1.40030740E+01  1.00782504E+00  1.20000000E+01  1.00782504E+00
  1.20000000E+01  1.00782504E+00  1.00782504E+00  1.00782504E+00  1.20000000E+01
  1.59949146E+01  1.40030740E+01  1.00782504E+00  1.20000000E+01  1.00782504E+00
  1.00782504E+00  1.00782504E+00
Atom fragment info                         I   N=          22
           0           0           0           0           0           0
           0           0           0           0           0           0
           0           0           0           0           0           0
           0           0           0           0
Atom residue num                           I   N=          22
           0           0           0           0           0           0
           0           0           0           0           0           0
           0           0           0           0           0           0
           0           0           0           0
Nuclear spins                              I   N=          22
           0           1           1           1           0           0
           2           1           0           1           0           1
           1           1           0           0           2           1
           0           1           1           1
Nuclear ZEff                               R   N=          22
 -3.60000000E+00 -1.00000000E+00 -1.00000000E+00 -1.00000000E+00 -3.60000000E+00
 -5.60000000E+00 -4.55000000E+00 -1.00000000E+00 -3.60000000E+00 -1.00000000E+00
 -3.60000000E+00 -1.00000000E+00 -1.00000000E+00 -1.00000000E+00 -3.60000000E+00
 -5.60000000E+00 -4.55000000E+00 -1.00000000E+00 -3.60000000E+00 -1.00000000E+00
 -1.00000000E+00 -1.00000000E+00
Nuclear ZNuc                               R   N=          22
  6.00000000E+00  1.00000000E+00  1.00000000E+00  1.00000000E+00  6.00000000E+00
  8.00000000E+00  7.00000000E+00  1.00000000E+00  6.00000000E+00  1.00000000E+00
  6.00000000E+00  1.00000000E+00  1.00000000E+00  1.00000000E+00  6.00000000E+00
  8.00000000E+00  7.00000000E+00  1.00000000E+00  6.00000000E+00  1.00000000E+00
  1.00000000E+00  1.00000000E+00
Nuclear QMom                               R   N=          22
  0.00000000E+00  0.00000000E+00  0.00000000E+00  0.00000000E+00  0.00000000E+00
  0.00000000E+00  2.04400000E+00  0.00000000E+00  0.00000000E+00  0.00000000E+00
  0.00000000E+00  0.00000000E+00  0.00000000E+00  0.00000000E+00  0.00000000E+00
  0.00000000E+00  2.04400000E+00  0.00000000E+00  0.00000000E+00  0.00000000E+00
  0.00000000E+00  0.00000000E+00
Nuclear GFac                               R   N=          22
  0.00000000E+00  2.79284600E+00  2.79284600E+00  2.79284600E+00  0.00000000E+00
  0.00000000E+00  4.03761000E-01  2.79284600E+00  0.00000000E+00  2.79284600E+00
  0.00000000E+00  2.79284600E+00  2.79284600E+00  2.79284600E+00  0.00000000E+00
  0.00000000E+00  4.03761000E-01  2.79284600E+00  0.00000000E+00  2.79284600E+00
  2.79284600E+00  2.79284600E+00
MicOpt                                     I   N=          22
          -1          -1          -1          -1          -1          -1
          -1          -1          -1          -1          -1          -1
          -1          -1          -1          -1          -1          -1
          -1          -1          -1          -1
Number of residues                         I                0
Number of secondary structures             I                0
Number of contracted shells                I               64
Number of primitive shells                 I              158
Pure/Cartesian d shells                    I                1
Pure/Cartesian f shells                    I                0
Highest angular momentum                   I                1
Largest degree of contraction              I                6
Shell types                                I   N=          64
           0          -1          -1          -1           0           0
           0           0           0           0           0          -1
          -1          -1           0          -1          -1          -1
           0          -1          -1          -1           0           0
           0          -1          -1          -1           0           0
           0          -1          -1          -1           0           0
           0           0           0           0           0          -1
          -1          -1           0          -1          -1          -1
           0          -1          -1          -1           0           0
           0          -1          -1          -1           0           0
           0           0           0           0
Number of primitives per shell             I   N=          64
           6           3           1           1           3           1
           3           1           3           1           6           3
           1           1           6           3           1           1
           6           3           1           1           3           1
           6           3           1           1           3           1
           6           3           1           1           3           1
           3           1           3           1           6           3
           1           1           6           3           1           1
           6           3           1           1           3           1
           6           3           1           1           3           1
           3           1           3           1
Shell to atom map                          I   N=          64
           1           1           1           1           2           2
           3           3           4           4           5           5
           5           5           6           6           6           6
           7           7           7           7           8           8
           9           9           9           9          10          10
          11          11          11          11          12          12
          13          13          14          14          15          15
          15          15          16          16          16          16
          17          17          17          17          18          18
          19          19          19          19          20          20
          21          21          22          22
Primitive exponents                        R   N=         158
  3.04752488E+03  4.57369518E+02  1.03948685E+02  2.92101553E+01  9.28666296E+00
  3.16392696E+00  7.86827235E+00  1.88128854E+00  5.44249258E-01  1.68714478E-01
  4.38000000E-02  1.87311370E+01  2.82539436E+00  6.40121692E-01  1.61277759E-01
  1.87311370E+01  2.82539436E+00  6.40121692E-01  1.61277759E-01  1.87311370E+01
  2.82539436E+00  6.40121692E-01  1.61277759E-01  3.04752488E+03  4.57369518E+02
  1.03948685E+02  2.92101553E+01  9.28666296E+00  3.16392696E+00  7.86827235E+00
  1.88128854E+00  5.44249258E-01  1.68714478E-01  4.38000000E-02  5.48467166E+03
  8.25234946E+02  1.88046958E+02  5.29645000E+01  1.68975704E+01  5.79963534E+00
  1.55396162E+01  3.59993359E+00  1.01376175E+00  2.70005823E-01  8.45000000E-02
  4.17351146E+03  6.27457911E+02  1.42902093E+02  4.02343293E+01  1.28202129E+01
  4.39043701E+00  1.16263619E+01  2.71627981E+00  7.72218397E-01  2.12031498E-01
  6.39000000E-02  1.87311370E+01  2.82539436E+00  6.40121692E-01  1.61277759E-01
  3.04752488E+03  4.57369518E+02  1.03948685E+02  2.92101553E+01  9.28666296E+00
  3.16392696E+00  7.86827235E+00  1.88128854E+00  5.44249258E-01  1.68714478E-01
  4.38000000E-02  1.87311370E+01  2.82539436E+00  6.40121692E-01  1.61277759E-01
  3.04752488E+03  4.57369518E+02  1.03948685E+02  2.92101553E+01  9.28666296E+00
  3.16392696E+00  7.86827235E+00  1.88128854E+00  5.44249258E-01  1.68714478E-01
  4.38000000E-02  1.87311370E+01  2.82539436E+00  6.40121692E-01  1.61277759E-01
  1.87311370E+01  2.82539436E+00  6.40121692E-01  1.61277759E-01  1.87311370E+01
  2.82539436E+00  6.40121692E-01  1.61277759E-01  3.04752488E+03  4.57369518E+02
  1.03948685E+02  2.92101553E+01  9.28666296E+00  3.16392696E+00  7.86827235E+00
  1.88128854E+00  5.44249258E-01  1.68714478E-01  4.38000000E-02  5.48467166E+03
  8.25234946E+02  1.88046958E+02  5.29645000E+01  1.68975704E+01  5.79963534E+00
  1.55396162E+01  3.59993359E+00  1.01376175E+00  2.70005823E-01  8.45000000E-02
  4.17351146E+03  6.27457911E+02  1.42902093E+02  4.02343293E+01  1.28202129E+01
  4.39043701E+00  1.16263619E+01  2.71627981E+00  7.72218397E-01  2.12031498E-01
  6.39000000E-02  1.87311370E+01  2.82539436E+00  6.40121692E-01  1.61277759E-01
  3.04752488E+03  4.57369518E+02  1.03948685E+02  2.92101553E+01  9.28666296E+00
  3.16392696E+00  7.86827235E+00  1.88128854E+00  5.44249258E-01  1.68714478E-01
  4.38000000E-02  1.87311370E+01  2.82539436E+00  6.40121692E-01  1.61277759E-01
  1.87311370E+01  2.82539436E+00  6.40121692E-01  1.61277759E-01  1.87311370E+01
  2.82539436E+00  6.40121692E-01  1.61277759E-01
Contraction coefficients                   R   N=         158
  1.83473713E-03  1.40373228E-02  6.88426223E-02  2.32184443E-01  4.67941348E-01
  3.62311985E-01 -1.19332420E-01 -1.60854152E-01  1.14345644E+00  1.00000000E+00
  1.00000000E+00  3.34946043E-02  2.34726953E-01  8.13757326E-01  1.00000000E+00
  3.34946043E-02  2.34726953E-01  8.13757326E-01  1.00000000E+00  3.34946043E-02
  2.34726953E-01  8.13757326E-01  1.00000000E+00  1.83473713E-03  1.40373228E-02
  6.88426223E-02  2.32184443E-01  4.67941348E-01  3.62311985E-01 -1.19332420E-01
 -1.60854152E-01  1.14345644E+00  1.00000000E+00  1.00000000E+00  1.83107443E-03
  1.39501722E-02  6.84450781E-02  2.32714336E-01  4.70192898E-01  3.58520853E-01
 -1.10777550E-01 -1.48026263E-01  1.13076702E+00  1.00000000E+00  1.00000000E+00
  1.83477216E-03  1.39946270E-02  6.85865518E-02  2.32240873E-01  4.69069948E-01
  3.60455199E-01 -1.14961182E-01 -1.69117479E-01  1.14585195E+00  1.00000000E+00
  1.00000000E+00  3.34946043E-02  2.34726953E-01  8.13757326E-01  1.00000000E+00
  1.83473713E-03  1.40373228E-02  6.88426223E-02  2.32184443E-01  4.67941348E-01
  3.62311985E-01 -1.19332420E-01 -1.60854152E-01  1.14345644E+00  1.00000000E+00
  1.00000000E+00  3.34946043E-02  2.34726953E-01  8.13757326E-01  1.00000000E+00
  1.83473713E-03  1.40373228E-02  6.88426223E-02  2.32184443E-01  4.67941348E-01
  3.62311985E-01 -1.19332420E-01 -1.60854152E-01  1.14345644E+00  1.00000000E+00
  1.00000000E+00  3.34946043E-02  2.34726953E-01  8.13757326E-01  1.00000000E+00
  3.34946043E-02  2.34726953E-01  8.13757326E-01  1.00000000E+00  3.34946043E-02
  2.34726953E-01  8.13757326E-01  1.00000000E+00  1.83473713E-03  1.40373228E-02
  6.88426223E-02  2.32184443E-01  4.67941348E-01  3.62311985E-01 -1.19332420E-01
 -1.60854152E-01  1.14345644E+00  1.00000000E+00  1.00000000E+00  1.83107443E-03
  1.39501722E-02  6.84450781E-02  2.32714336E-01  4.70192898E-01  3.58520853E-01
 -1.10777550E-01 -1.48026263E-01  1.13076702E+00  1.00000000E+00  1.00000000E+00
  1.83477216E-03  1.39946270E-02  6.85865518E-02  2.32240873E-01  4.69069948E-01
  3.60455199E-01 -1.14961182E-01 -1.69117479E-01  1.14585195E+00  1.00000000E+00
  1.00000000E+00  3.34946043E-02  2.34726953E-01  8.13757326E-01  1.00000000E+00
  1.83473713E-03  1.40373228E-02  6.88426223E-02  2.32184443E-01  4.67941348E-01
  3.62311985E-01 -1.19332420E-01 -1.60854152E-01  1.14345644E+00  1.00000000E+00
  1.00000000E+00  3.34946043E-02  2.34726953E-01  8.13757326E-01  1.00000000E+00
  3.34946043E-02  2.34726953E-01  8.13757326E-01  1.00000000E+00  3.34946043E-02
  2.34726953E-01  8.13757326E-01  1.00000000E+00
P(S=P) Contraction coefficients            R   N=         158
  0.00000000E+00  0.00000000E+00  0.00000000E+00  0.00000000E+00  0.00000000E+00
  0.00000000E+00  6.89990666E-02  3.16423961E-01  7.44308291E-01  1.00000000E+00
  1.00000000E+00  0.00000000E+00  0.00000000E+00  0.00000000E+00  0.00000000E+00
  0.00000000E+00  0.00000000E+00  0.00000000E+00  0.00000000E+00  0.00000000E+00
  0.00000000E+00  0.00000000E+00  0.00000000E+00  0.00000000E+00  0.00000000E+00
  0.00000000E+00  0.00000000E+00  0.00000000E+00  0.00000000E+00  6.89990666E-02
  3.16423961E-01  7.44308291E-01  1.00000000E+00  1.00000000E+00  0.00000000E+00
  0.00000000E+00  0.00000000E+00  0.00000000E+00  0.00000000E+00  0.00000000E+00
  7.08742682E-02  3.39752839E-01  7.27158577E-01  1.00000000E+00  1.00000000E+00
  0.00000000E+00  0.00000000E+00  0.00000000E+00  0.00000000E+00  0.00000000E+00
  0.00000000E+00  6.75797439E-02  3.23907296E-01  7.40895140E-01  1.00000000E+00