Gaussian input prepared by ASE                                          
Freq      RBMK                                                        6-31+G              
Number of atoms                            I               22
Info1-9                                    I   N=           9
          33          33        1002           0           0         100
           6          18        -402
Full Title                                 C   N=           3
Gaussian input prepared by ASE      
Route                                      C   N=           6
#P Geom=AllCheck Guess=TCheck SCRF=Check GenChk RBMK/6-31+G 
Freq        
Charge                                     I                0
Multiplicity                               I                1
Number of electrons                        I               78
Number of alpha electrons                  I               39
Number of beta electrons                   I               39
Number of basis functions                  I              154
Number of independent functions            I              154
Number of point charges in /Mol/           I                0
Number of translation vectors              I                0
Atomic numbers                             I   N=          22
           6           1           1           1           6           8
           7           1           6           1           6           1
           1           1           6           8           7           1
           6           1           1           1
Nuclear charges                            R   N=          22
  6.00000000E+00  1.00000000E+00  1.00000000E+00  1.00000000E+00  6.00000000E+00
  8.00000000E+00  7.00000000E+00  1.00000000E+00  6.00000000E+00  1.00000000E+00
  6.00000000E+00  1.00000000E+00  1.00000000E+00  1.00000000E+00  6.00000000E+00
  8.00000000E+00  7.00000000E+00  1.00000000E+00  6.00000000E+00  1.00000000E+00
  1.00000000E+00  1.00000000E+00
Current cartesian coordinates              R   N=          66
 -9.34728505E+00 -1.45132223E+00  1.73112519E-01 -9.56226778E+00 -3.17713672E+00
 -9.18039787E-01 -9.54538734E+00 -1.53331238E+00  2.21484934E+00 -9.51966214E+00
  3.60160611E-01 -7.74097724E-01 -4.35302880E+00 -5.48904582E-02 -3.74580042E-01
 -4.75409220E+00  2.06322154E+00 -1.20819818E+00 -1.93102754E+00 -9.81360016E-01
  7.63963951E-02 -1.67282084E+00 -2.76483682E+00  7.15855540E-01  4.14540070E-01
  6.55261295E-01 -2.58179000E-01  2.88175056E-01  1.48052492E+00 -2.16156183E+00
  3.79170056E-01  2.79937664E+00  1.73868966E+00  1.95532034E+00  4.11873555E+00
  1.45778505E+00 -1.39285097E+00  3.85742733E+00  1.57684997E+00  5.23471683E-01
  1.99063230E+00  3.64263454E+00  3.02950191E+00 -8.41556167E-01 -4.82236802E-02
  3.06950835E+00 -3.07852259E+00  6.46110027E-01  5.19968194E+00  5.49980882E-01
 -6.01395714E-01  4.91059958E+00  2.34666571E+00 -1.18699565E+00  7.99968785E+00
 -1.81511334E-01 -4.34379480E-01  8.94310608E+00  1.08978706E+00  8.96118114E-01
  8.09244310E+00 -2.13033686E+00  2.48671524E-01  8.84044701E+00 -4.83948705E-02
 -2.31900848E+00
Number of symbols in /Mol/                 I                0
Redundant internal dimensions              I   N=           4
         101          23          37          41
Redundant internal coordinate indices      I   N=         404
           1           2           0           0           1           3
           0           0           1           4           0           0
           1           5           0           0           1          19
           0           0           4           5           0           0
           5           6           0           0           5           7
           0           0           7           8           0           0
           7           9           0           0           9          10
           0           0           9          11           0           0
           9          15           0           0          11          12
           0           0          11          13           0           0
          11          14           0           0          15          16
           0           0          15          17           0           0
          17          18           0           0          17          19
           0           0          19          20           0           0
          19          21           0           0          19          22
           0           0           2           1           3           0
           2           1           4           0           2           1
           5           0           3           1           4           0
           3           1           5           0           1           5
           6           0           1           5           7           0
           4           5           6           0           4           5
           7           0           6           5           7           0
           5           7           8           0           5           7
           9           0           8           7           9           0
           7           9          10           0           7           9
          11           0           7           9          15           0
          10           9          11           0          10           9
          15           0          11           9          15           0
           9          11          12           0           9          11
          13           0           9          11          14           0
          12          11          13           0          12          11
          14           0          13          11          14           0
           9          15          16           0           9          15
          17           0          16          15          17           0
          15          17          18           0          15          17
          19           0          18          17          19           0
          17          19          20           0          17          19
          21           0          17          19          22           0
          20          19          21           0          20          19
          22           0          21          19          22           0
           2           1           5           6           2           1
           5           7           3           1           5           6
           3           1           5           7           1           5
           7           8           1           5           7           9
           4           5           7           8           4           5
           7           9           6           5           7           8
           6           5           7           9           5           7
           9          10           5           7           9          11
           5           7           9          15           8           7
           9          10           8           7           9          11
           8           7           9          15           7           9
          11          12           7           9          11          13
           7           9          11          14          10           9
          11          12          10           9          11          13
          10           9          11          14          15           9
          11          12          15           9          11          13
          15           9          11          14           7           9
          15          16           7           9          15          17
          10           9          15          16          10           9
          15          17          11           9          15          16
          11           9          15          17           9          15
          17          18           9          15          17          19
          16          15          17          18          16          15
          17          19          15          17          19          20
          15          17          19          21          15          17
          19          22          18          17          19          20
          18          17          19          21          18          17
          19          22
Redundant internal coordinates             R   N=         101
  2.05311144E+00  2.05296278E+00  2.05143637E+00  5.21465092E+00  1.74039919E+01
  5.19865192E+00  2.31131337E+00  2.63207441E+00  1.91216323E+00  2.87961063E+00
  2.07843556E+00  2.93018192E+00  3.02035912E+00  2.07457587E+00  2.07019851E+00
  2.07361917E+00  2.34258801E+00  2.63667518E+00  1.91169356E+00  2.89879430E+00
  2.06796069E+00  2.06714372E+00  2.06795126E+00  2.07702419E+00  2.08067561E+00
  1.84373879E+00  2.07871896E+00  1.77988404E+00  1.68816408E+00  2.44813474E+00
  1.29393777E+00  2.84312986E+00  2.14603904E+00  2.10581652E+00  2.12889086E+00
  2.04762415E+00  1.85724521E+00  1.90378367E+00  1.99926432E+00  1.91007787E+00
  1.88921997E+00  1.90255749E+00  1.94326086E+00  1.90819809E+00  1.91717340E+00
  1.89093515E+00  1.89598808E+00  1.90781730E+00  2.10437850E+00  2.02246792E+00
  2.15566965E+00  2.02173954E+00  2.27806459E+00  1.98326935E+00  1.89926978E+00
  1.87578276E+00  1.90070750E+00  1.92464008E+00  1.94045743E+00  1.92152619E+00
  2.15680493E+00 -1.03211693E+00 -1.94404373E+00  1.15021973E+00  8.96983713E-02
 -3.00629956E+00  8.90658875E-03 -3.08709135E+00 -3.10792200E+00  7.92653680E-02
 -9.05573531E-01  1.15336597E+00 -2.99229948E+00  2.28016584E+00 -1.94407996E+00
  1.93439894E-01 -3.05639372E+00 -9.67628343E-01  1.12582220E+00 -1.03099019E+00
  1.05777519E+00 -3.13195957E+00  1.03218684E+00  3.12095222E+00 -1.06878254E+00
 -1.48243831E-01  3.03130246E+00 -2.21700486E+00  9.62541427E-01  1.98994066E+00
 -1.11369837E+00 -6.25349886E-02  3.06175219E+00  3.11825045E+00 -4.06476700E-02
 -2.08734153E+00 -3.21321763E-03  2.07799624E+00  1.03724972E+00  3.12137804E+00
 -1.08059781E+00
ZRed-IntVec                                I   N=         101
           0           0           0           0          -1           0
           0           0           0           0           0           0
           0           0           0           0           0           0
           0           0           0           0           0           0
           0           0           0           0           0           0
           0           0           0           0           0           0
           0           0           0           0           0           0
           0           0           0           0           0           0
           0           0           0           0           0           0
           0           0           0           0           0           0
           0           0           0           0           0           0
           0           0           0           0           0           0
           0           0           0           0           0           0
           0           0           0           0           0           0
           0           0           0           0           0           0
           0           0           0           0           0           0
           0           0           0           0           0
ZRed-FPVec                                 R   N=         101
  0.00000000E+00  0.00000000E+00  0.00000000E+00  0.00000000E+00  0.00000000E+00
  0.00000000E+00  0.00000000E+00  0.00000000E+00  0.00000000E+00  0.00000000E+00
  0.00000000E+00  0.00000000E+00  0.00000000E+00  0.00000000E+00  0.00000000E+00
  0.00000000E+00  0.00000000E+00  0.00000000E+00  0.00000000E+00  0.00000000E+00
  0.00000000E+00  0.00000000E+00  0.00000000E+00  0.00000000E+00  0.00000000E+00
  0.00000000E+00  0.00000000E+00  0.00000000E+00  0.00000000E+00  0.00000000E+00
  0.00000000E+00  0.00000000E+00  0.00000000E+00  0.00000000E+00  0.00000000E+00
  0.00000000E+00  0.00000000E+00  0.00000000E+00  0.00000000E+00  0.00000000E+00
  0.00000000E+00  0.00000000E+00  0.00000000E+00  0.00000000E+00  0.00000000E+00
  0.00000000E+00  0.00000000E+00  0.00000000E+00  0.00000000E+00  0.00000000E+00
  0.00000000E+00  0.00000000E+00  0.00000000E+00  0.00000000E+00  0.00000000E+00
  0.00000000E+00  0.00000000E+00  0.00000000E+00  0.00000000E+00  0.00000000E+00
  0.00000000E+00  0.00000000E+00  0.00000000E+00  0.00000000E+00  0.00000000E+00
  0.00000000E+00  0.00000000E+00  0.00000000E+00  0.00000000E+00  0.00000000E+00
  0.00000000E+00  0.00000000E+00  0.00000000E+00  0.00000000E+00  0.00000000E+00
  0.00000000E+00  0.00000000E+00  0.00000000E+00  0.00000000E+00  0.00000000E+00
  0.00000000E+00  0.00000000E+00  0.00000000E+00  0.00000000E+00  0.00000000E+00
  0.00000000E+00  0.00000000E+00  0.00000000E+00  0.00000000E+00  0.00000000E+00
  0.00000000E+00  0.00000000E+00  0.00000000E+00  0.00000000E+00  0.00000000E+00
  0.00000000E+00  0.00000000E+00  0.00000000E+00  0.00000000E+00  0.00000000E+00
  0.00000000E+00
ZRed-Constraint1                           R   N=         101
  2.05311144E+00  2.05296278E+00  2.05143637E+00  5.21465092E+00  1.74039919E+01
  5.19865192E+00  2.31131337E+00  2.63207441E+00  1.91216323E+00  2.87961063E+00
  2.07843556E+00  2.93018192E+00  3.02035912E+00  2.07457587E+00  2.07019851E+00
  2.07361917E+00  2.34258801E+00  2.63667518E+00  1.91169356E+00  2.89879430E+00
  2.06796069E+00  2.06714372E+00  2.06795126E+00  2.07702419E+00  2.08067561E+00
  1.84373879E+00  2.07871896E+00  1.77988404E+00  1.68816408E+00  2.44813474E+00
  1.29393777E+00  2.84312986E+00  2.14603904E+00  2.10581652E+00  2.12889086E+00
  2.04762415E+00  1.85724521E+00  1.90378367E+00  1.99926432E+00  1.91007787E+00
  1.88921997E+00  1.90255749E+00  1.94326086E+00  1.90819809E+00  1.91717340E+00
  1.89093515E+00  1.89598808E+00  1.90781730E+00  2.10437850E+00  2.02246792E+00
  2.15566965E+00  2.02173954E+00  2.27806459E+00  1.98326935E+00  1.89926978E+00
  1.87578276E+00  1.90070750E+00  1.92464008E+00  1.94045743E+00  1.92152619E+00
  2.15680493E+00 -1.03211693E+00 -1.94404373E+00  1.15021973E+00  8.96983713E-02
 -3.00629956E+00  8.90658875E-03 -3.08709135E+00 -3.10792200E+00  7.92653680E-02
 -9.05573531E-01  1.15336597E+00 -2.99229948E+00  2.28016584E+00 -1.94407996E+00
  1.93439894E-01 -3.05639372E+00 -9.67628343E-01  1.12582220E+00 -1.03099019E+00
  1.05777519E+00 -3.13195957E+00  1.03218684E+00  3.12095222E+00 -1.06878254E+00
 -1.48243831E-01  3.03130246E+00 -2.21700486E+00  9.62541427E-01  1.98994066E+00
 -1.11369837E+00 -6.25349886E-02  3.06175219E+00  3.11825045E+00 -4.06476700E-02
 -2.08734153E+00 -3.21321764E-03  2.07799624E+00  1.03724972E+00  3.12137804E+00
 -1.08059781E+00
ZRed-Constraint2                           R   N=         101
  2.05304294E+00  2.05148283E+00  2.05091149E+00  5.20178652E+00  1.74039926E+01
  5.40380512E+00  2.27320458E+00  2.62637276E+00  1.91264164E+00  2.88145218E+00
  2.07834789E+00  2.92977908E+00  3.02284656E+00  2.07454401E+00  2.07050419E+00
  2.07366027E+00  2.34465821E+00  2.63849364E+00  1.91173021E+00  2.90158907E+00
  2.06783877E+00  2.06711164E+00  2.06790032E+00  2.08221469E+00  2.08604390E+00
  1.95887433E+00  2.06936480E+00  1.55579835E+00  1.68773764E+00  2.45325535E+00
  1.43941091E+00  2.63891430E+00  2.14140352E+00  2.10509513E+00  2.12917647E+00
  2.04805208E+00  1.85700519E+00  1.90269702E+00  2.00091527E+00  1.91017530E+00
  1.88872975E+00  1.90258980E+00  1.94323768E+00  1.90771963E+00  1.91717908E+00
  1.89133075E+00  1.89594400E+00  1.90797423E+00  2.10390117E+00  2.02271590E+00
  2.15589307E+00  2.02102937E+00  2.27999675E+00  1.98205613E+00  1.89851964E+00
  1.87569894E+00  1.90031130E+00  1.92508725E+00  1.94094086E+00  1.92178044E+00
  2.96877624E+00 -2.18687667E-01 -1.19364484E+00  1.90207655E+00  8.72104087E-02
 -3.00858925E+00 -5.32483176E-01  2.65490248E+00 -3.10852400E+00  7.88616544E-02
 -9.07021335E-01  1.15134029E+00 -2.99395471E+00  2.27893879E+00 -1.94588489E+00
  1.92005410E-01 -3.05924073E+00 -9.70308954E-01  1.12304170E+00 -1.03468046E+00
  1.05425132E+00 -3.13558333E+00  1.02797943E+00  3.11691121E+00 -1.07292345E+00
 -1.48226757E-01  3.03148165E+00 -2.21737108E+00  9.62337336E-01  1.98972155E+00
 -1.11375535E+00 -6.32736686E-02  3.06169052E+00  3.11769613E+00 -4.05249931E-02
 -2.09155300E+00 -7.35409911E-03  2.07389208E+00  1.03370641E+00  3.11790531E+00
 -1.08403381E+00
Force Field                                I                0
Atom Types                                 C   N=          22
                                                            
                                                            
                                                            
                                                            
                        
Int Atom Types                             I   N=          22
           0           0           0           0           0           0
           0           0           0           0           0           0
           0           0           0           0           0           0
           0           0           0           0
MM charges                                 R   N=          22
  0.00000000E+00  0.00000000E+00  0.00000000E+00  0.00000000E+00  0.00000000E+00
  0.00000000E+00  0.00000000E+00  0.00000000E+00  0.00000000E+00  0.00000000E+00
  0.00000000E+00  0.00000000E+00  0.00000000E+00  0.00000000E+00  0.00000000E+00
  0.00000000E+00  0.00000000E+00  0.00000000E+00  0.00000000E+00  0.00000000E+00
  0.00000000E+00  0.00000000E+00
Integer atomic weights                     I   N=          22
          12           1           1           1          12          16
          14           1          12           1          12           1
           1           1          12          16          14           1
          12           1           1           1
Real atomic weights                        R   N=          22
  1.20000000E+01  1.00782504E+00  1.00782504E+00  1.00782504E+00  1.20000000E+01
  1.59949146E+01  1.40030740E+01  1.00782504E+00  1.20000000E+01  1.00782504E+00
  1.20000000E+01  1.00782504E+00  1.00782504E+00  1.00782504E+00  1.20000000E+01
  1.59949146E+01  1.40030740E+01  1.00782504E+00  1.20000000E+01  1.00782504E+00
  1.00782504E+00  1.00782504E+00
Atom fragment info                         I   N=          22
           0           0           0           0           0           0
           0           0           0           0           0           0
           0           0           0           0           0           0
           0           0           0           0
Atom residue num                           I   N=          22
           0           0           0           0           0           0
           0           0           0           0           0           0
           0           0           0           0           0           0
           0           0           0           0
Nuclear spins                              I   N=          22
           0           1           1           1           0           0
           2           1           0           1           0           1
           1           1           0           0           2           1
           0           1           1           1
Nuclear ZEff                               R   N=          22
 -3.60000000E+00 -1.00000000E+00 -1.00000000E+00 -1.00000000E+00 -3.60000000E+00
 -5.60000000E+00 -4.55000000E+00 -1.00000000E+00 -3.60000000E+00 -1.00000000E+00
 -3.60000000E+00 -1.00000000E+00 -1.00000000E+00 -1.00000000E+00 -3.60000000E+00
 -5.60000000E+00 -4.55000000E+00 -1.00000000E+00 -3.60000000E+00 -1.00000000E+00
 -1.00000000E+00 -1.00000000E+00
Nuclear ZNuc                               R   N=          22
  6.00000000E+00  1.00000000E+00  1.00000000E+00  1.00000000E+00  6.00000000E+00
  8.00000000E+00  7.00000000E+00  1.00000000E+00  6.00000000E+00  1.00000000E+00
  6.00000000E+00  1.00000000E+00  1.00000000E+00  1.00000000E+00  6.00000000E+00
  8.00000000E+00  7.00000000E+00  1.00000000E+00  6.00000000E+00  1.00000000E+00
  1.00000000E+00  1.00000000E+00
Nuclear QMom                               R   N=          22
  0.00000000E+00  0.00000000E+00  0.00000000E+00  0.00000000E+00  0.00000000E+00
  0.00000000E+00  2.04400000E+00  0.00000000E+00  0.00000000E+00  0.00000000E+00
  0.00000000E+00  0.00000000E+00  0.00000000E+00  0.00000000E+00  0.00000000E+00
  0.00000000E+00  2.04400000E+00  0.00000000E+00  0.00000000E+00  0.00000000E+00
  0.00000000E+00  0.00000000E+00
Nuclear GFac                               R   N=          22
  0.00000000E+00  2.79284600E+00  2.79284600E+00  2.79284600E+00  0.00000000E+00
  0.00000000E+00  4.03761000E-01  2.79284600E+00  0.00000000E+00  2.79284600E+00
  0.00000000E+00  2.79284600E+00  2.79284600E+00  2.79284600E+00  0.00000000E+00
  0.00000000E+00  4.03761000E-01  2.79284600E+00  0.00000000E+00  2.79284600E+00
  2.79284600E+00  2.79284600E+00
MicOpt                                     I   N=          22
          -1          -1          -1          -1          -1          -1
          -1          -1          -1          -1          -1          -1
          -1          -1          -1          -1          -1          -1
          -1          -1          -1          -1
Number of residues                         I                0
Number of secondary structures             I                0
Number of contracted shells                I               64
Number of primitive shells                 I              158
Pure/Cartesian d shells                    I                1
Pure/Cartesian f shells                    I                0
Highest angular momentum                   I                1
Largest degree of contraction              I                6
Shell types                                I   N=          64
           0          -1          -1          -1           0           0
           0           0           0           0           0          -1
          -1          -1           0          -1          -1          -1
           0          -1          -1          -1           0           0
           0          -1          -1          -1           0           0
           0          -1          -1          -1           0           0
           0           0           0           0           0          -1
          -1          -1           0          -1          -1          -1
           0          -1          -1          -1           0           0
           0          -1          -1          -1           0           0
           0           0           0           0
Number of primitives per shell             I   N=          64
           6           3           1           1           3           1
           3           1           3           1           6           3
           1           1           6           3           1           1
           6           3           1           1           3           1
           6           3           1           1           3           1
           6           3           1           1           3           1
           3           1           3           1           6           3
           1           1           6           3           1           1
           6           3           1           1           3           1
           6           3           1           1           3           1
           3           1           3           1
Shell to atom map                          I   N=          64
           1           1           1           1           2           2
           3           3           4           4           5           5
           5           5           6           6           6           6
           7           7           7           7           8           8
           9           9           9           9          10          10
          11          11          11          11          12          12
          13          13          14          14          15          15
          15          15          16          16          16          16
          17          17          17          17          18          18
          19          19          19          19          20          20
          21          21          22          22
Primitive exponents                        R   N=         158
  3.04752488E+03  4.57369518E+02  1.03948685E+02  2.92101553E+01  9.28666296E+00
  3.16392696E+00  7.86827235E+00  1.88128854E+00  5.44249258E-01  1.68714478E-01
  4.38000000E-02  1.87311370E+01  2.82539436E+00  6.40121692E-01  1.61277759E-01
  1.87311370E+01  2.82539436E+00  6.40121692E-01  1.61277759E-01  1.87311370E+01
  2.82539436E+00  6.40121692E-01  1.61277759E-01  3.04752488E+03  4.57369518E+02
  1.03948685E+02  2.92101553E+01  9.28666296E+00  3.16392696E+00  7.86827235E+00
  1.88128854E+00  5.44249258E-01  1.68714478E-01  4.38000000E-02  5.48467166E+03
  8.25234946E+02  1.88046958E+02  5.29645000E+01  1.68975704E+01  5.79963534E+00
  1.55396162E+01  3.59993359E+00  1.01376175E+00  2.70005823E-01  8.45000000E-02
  4.17351146E+03  6.27457911E+02  1.42902093E+02  4.02343293E+01  1.28202129E+01
  4.39043701E+00  1.16263619E+01  2.71627981E+00  7.72218397E-01  2.12031498E-01
  6.39000000E-02  1.87311370E+01  2.82539436E+00  6.40121692E-01  1.61277759E-01
  3.04752488E+03  4.57369518E+02  1.03948685E+02  2.92101553E+01  9.28666296E+00
  3.16392696E+00  7.86827235E+00  1.88128854E+00  5.44249258E-01  1.68714478E-01
  4.38000000E-02  1.87311370E+01  2.82539436E+00  6.40121692E-01  1.61277759E-01
  3.04752488E+03  4.57369518E+02  1.03948685E+02  2.92101553E+01  9.28666296E+00
  3.16392696E+00  7.86827235E+00  1.88128854E+00  5.44249258E-01  1.68714478E-01
  4.38000000E-02  1.87311370E+01  2.82539436E+00  6.40121692E-01  1.61277759E-01
  1.87311370E+01  2.82539436E+00  6.40121692E-01  1.61277759E-01  1.87311370E+01
  2.82539436E+00  6.40121692E-01  1.61277759E-01  3.04752488E+03  4.57369518E+02
  1.03948685E+02  2.92101553E+01  9.28666296E+00  3.16392696E+00  7.86827235E+00
  1.88128854E+00  5.44249258E-01  1.68714478E-01  4.38000000E-02  5.48467166E+03
  8.25234946E+02  1.88046958E+02  5.29645000E+01  1.68975704E+01  5.79963534E+00
  1.55396162E+01  3.59993359E+00  1.01376175E+00  2.70005823E-01  8.45000000E-02
  4.17351146E+03  6.27457911E+02  1.42902093E+02  4.02343293E+01  1.28202129E+01
  4.39043701E+00  1.16263619E+01  2.71627981E+00  7.72218397E-01  2.12031498E-01
  6.39000000E-02  1.87311370E+01  2.82539436E+00  6.40121692E-01  1.61277759E-01
  3.04752488E+03  4.57369518E+02  1.03948685E+02  2.92101553E+01  9.28666296E+00
  3.16392696E+00  7.86827235E+00  1.88128854E+00  5.44249258E-01  1.68714478E-01
  4.38000000E-02  1.87311370E+01  2.82539436E+00  6.40121692E-01  1.61277759E-01
  1.87311370E+01  2.82539436E+00  6.40121692E-01  1.61277759E-01  1.87311370E+01
  2.82539436E+00  6.40121692E-01  1.61277759E-01
Contraction coefficients                   R   N=         158
  1.83473713E-03  1.40373228E-02  6.88426223E-02  2.32184443E-01  4.67941348E-01
  3.62311985E-01 -1.19332420E-01 -1.60854152E-01  1.14345644E+00  1.00000000E+00
  1.00000000E+00  3.34946043E-02  2.34726953E-01  8.13757326E-01  1.00000000E+00
  3.34946043E-02  2.34726953E-01  8.13757326E-01  1.00000000E+00  3.34946043E-02
  2.34726953E-01  8.13757326E-01  1.00000000E+00  1.83473713E-03  1.40373228E-02
  6.88426223E-02  2.32184443E-01  4.67941348E-01  3.62311985E-01 -1.19332420E-01
 -1.60854152E-01  1.14345644E+00  1.00000000E+00  1.00000000E+00  1.83107443E-03
  1.39501722E-02  6.84450781E-02  2.32714336E-01  4.70192898E-01  3.58520853E-01
 -1.10777550E-01 -1.48026263E-01  1.13076702E+00  1.00000000E+00  1.00000000E+00
  1.83477216E-03  1.39946270E-02  6.85865518E-02  2.32240873E-01  4.69069948E-01
  3.60455199E-01 -1.14961182E-01 -1.69117479E-01  1.14585195E+00  1.00000000E+00
  1.00000000E+00  3.34946043E-02  2.34726953E-01  8.13757326E-01  1.00000000E+00
  1.83473713E-03  1.40373228E-02  6.88426223E-02  2.32184443E-01  4.67941348E-01
  3.62311985E-01 -1.19332420E-01 -1.60854152E-01  1.14345644E+00  1.00000000E+00
  1.00000000E+00  3.34946043E-02  2.34726953E-01  8.13757326E-01  1.00000000E+00
  1.83473713E-03  1.40373228E-02  6.88426223E-02  2.32184443E-01  4.67941348E-01
  3.62311985E-01 -1.19332420E-01 -1.60854152E-01  1.14345644E+00  1.00000000E+00
  1.00000000E+00  3.34946043E-02  2.34726953E-01  8.13757326E-01  1.00000000E+00
  3.34946043E-02  2.34726953E-01  8.13757326E-01  1.00000000E+00  3.34946043E-02
  2.34726953E-01  8.13757326E-01  1.00000000E+00  1.83473713E-03  1.40373228E-02
  6.88426223E-02  2.32184443E-01  4.67941348E-01  3.62311985E-01 -1.19332420E-01
 -1.60854152E-01  1.14345644E+00  1.00000000E+00  1.00000000E+00  1.83107443E-03
  1.39501722E-02  6.84450781E-02  2.32714336E-01  4.70192898E-01  3.58520853E-01
 -1.10777550E-01 -1.48026263E-01  1.13076702E+00  1.00000000E+00  1.00000000E+00
  1.83477216E-03  1.39946270E-02  6.85865518E-02  2.32240873E-01  4.69069948E-01
  3.60455199E-01 -1.14961182E-01 -1.69117479E-01  1.14585195E+00  1.00000000E+00
  1.00000000E+00  3.34946043E-02  2.34726953E-01  8.13757326E-01  1.00000000E+00
  1.83473713E-03  1.40373228E-02  6.88426223E-02  2.32184443E-01  4.67941348E-01
  3.62311985E-01 -1.19332420E-01 -1.60854152E-01  1.14345644E+00  1.00000000E+00
  1.00000000E+00  3.34946043E-02  2.34726953E-01  8.13757326E-01  1.00000000E+00
  3.34946043E-02  2.34726953E-01  8.13757326E-01  1.00000000E+00  3.34946043E-02
  2.34726953E-01  8.13757326E-01  1.00000000E+00
P(S=P) Contraction coefficients            R   N=         158
  0.00000000E+00  0.00000000E+00  0.00000000E+00  0.00000000E+00  0.00000000E+00
  0.00000000E+00  6.89990666E-02  3.16423961E-01  7.44308291E-01  1.00000000E+00
  1.00000000E+00  0.00000000E+00  0.00000000E+00  0.00000000E+00  0.00000000E+00
  0.00000000E+00  0.00000000E+00  0.00000000E+00  0.00000000E+00  0.00000000E+00
  0.00000000E+00  0.00000000E+00  0.00000000E+00  0.00000000E+00  0.00000000E+00