Title Card Required                                                     
Freq      RBMK                                                        6-31+G              
Number of atoms                            I                6
Info1-9                                    I   N=           9
          22          22        1002           0           0         100
           6          18        -402
Full Title                                 C   N=           2
Title Card Required     
Route                                      C   N=           6
#N Geom=AllCheck Guess=TCheck SCRF=Check GenChk RBMK/6-31+G 
Freq        
Charge                                     I                0
Multiplicity                               I                1
Number of electrons                        I               18
Number of alpha electrons                  I                9
Number of beta electrons                   I                9
Number of basis functions                  I               34
Number of independent functions            I               34
Number of point charges in /Mol/           I                0
Number of translation vectors              I                0
Atomic numbers                             I   N=           6
           6           1           1           1           8           1
Nuclear charges                            R   N=           6
  6.00000000E+00  1.00000000E+00  1.00000000E+00  1.00000000E+00  8.00000000E+00
  1.00000000E+00
Current cartesian coordinates              R   N=          18
  1.54812348E+00 -3.35035588E-02  2.89202217E-05  2.10403393E+00  1.94478414E+00
 -1.51623340E-04  2.06818869E+00 -1.02508214E+00  1.73101349E+00  2.06824861E+00
 -1.02541578E+00 -1.73074618E+00 -1.65390370E+00  2.26110558E-01 -5.25129830E-05
 -2.29798250E+00 -1.50214934E+00  1.30897979E-04
Number of symbols in /Mol/                 I                0
Redundant internal dimensions              I   N=           4
          15           5           7           3
Redundant internal coordinate indices      I   N=          60
           1           2           0           0           1           3
           0           0           1           4           0           0
           1           5           0           0           5           6
           0           0           2           1           3           0
           2           1           4           0           2           1
           5           0           3           1           4           0
           3           1           5           0           4           1
           5           0           1           5           6           0
           2           1           5           6           3           1
           5           6           4           1           5           6
Redundant internal coordinates             R   N=          15
  2.05491087E+00  2.06155365E+00  2.06155341E+00  3.21253444E+00  1.84437518E+00
  1.97673274E+00  1.97673324E+00  1.76383644E+00  1.99309197E+00  1.86537284E+00
  1.86537234E+00  1.84662576E+00 -3.14157661E+00 -1.07038572E+00  1.07041746E+00
ZRed-IntVec                                I   N=          15
           0           0           0          -1           0           0
           0           0           0           0           0           0
           0           0           0
ZRed-FPVec                                 R   N=          15
  0.00000000E+00  0.00000000E+00  0.00000000E+00  0.00000000E+00  0.00000000E+00
  0.00000000E+00  0.00000000E+00  0.00000000E+00  0.00000000E+00  0.00000000E+00
  0.00000000E+00  0.00000000E+00  0.00000000E+00  0.00000000E+00  0.00000000E+00
ZRed-Constraint1                           R   N=          15
  2.05491087E+00  2.06155365E+00  2.06155341E+00  3.21253444E+00  1.84437518E+00
  1.97673274E+00  1.97673324E+00  1.76383644E+00  1.99309197E+00  1.86537284E+00
  1.86537234E+00  1.84662576E+00 -3.14157661E+00 -1.07038572E+00  1.07041746E+00
ZRed-Constraint2                           R   N=          15
  2.04681916E+00  2.05162533E+00  2.05162670E+00  3.21253444E+00  1.86736180E+00
  2.01526388E+00  2.01526274E+00  1.71503454E+00  2.03062813E+00  1.81350758E+00
  1.81353148E+00  1.71699128E+00  3.14148895E+00 -1.06617071E+00  1.06595730E+00
Force Field                                I                0
Atom Types                                 C   N=           6
                                                            
            
Int Atom Types                             I   N=           6
           0           0           0           0           0           0
MM charges                                 R   N=           6
  0.00000000E+00  0.00000000E+00  0.00000000E+00  0.00000000E+00  0.00000000E+00
  0.00000000E+00
Integer atomic weights                     I   N=           6
          12           1           1           1          16           1
Real atomic weights                        R   N=           6
  1.20000000E+01  1.00782504E+00  1.00782504E+00  1.00782504E+00  1.59949146E+01
  1.00782504E+00
Atom fragment info                         I   N=           6
           0           0           0           0           0           0
Atom residue num                           I   N=           6
           0           0           0           0           0           0
Nuclear spins                              I   N=           6
           0           1           1           1           0           1
Nuclear ZEff                               R   N=           6
 -3.60000000E+00 -1.00000000E+00 -1.00000000E+00 -1.00000000E+00 -5.60000000E+00
 -1.00000000E+00
Nuclear ZNuc                               R   N=           6
  6.00000000E+00  1.00000000E+00  1.00000000E+00  1.00000000E+00  8.00000000E+00
  1.00000000E+00
Nuclear QMom                               R   N=           6
  0.00000000E+00  0.00000000E+00  0.00000000E+00  0.00000000E+00  0.00000000E+00
  0.00000000E+00
Nuclear GFac                               R   N=           6
  0.00000000E+00  2.79284600E+00  2.79284600E+00  2.79284600E+00  0.00000000E+00
  2.79284600E+00
MicOpt                                     I   N=           6
          -1          -1          -1          -1          -1          -1
Number of residues                         I                0
Number of secondary structures             I                0
Number of contracted shells                I               16
Number of primitive shells                 I               38
Pure/Cartesian d shells                    I                1
Pure/Cartesian f shells                    I                0
Highest angular momentum                   I                1
Largest degree of contraction              I                6
Shell types                                I   N=          16
           0          -1          -1          -1           0           0
           0           0           0           0           0          -1
          -1          -1           0           0
Number of primitives per shell             I   N=          16
           6           3           1           1           3           1
           3           1           3           1           6           3
           1           1           3           1
Shell to atom map                          I   N=          16
           1           1           1           1           2           2
           3           3           4           4           5           5
           5           5           6           6
Primitive exponents                        R   N=          38
  3.04752488E+03  4.57369518E+02  1.03948685E+02  2.92101553E+01  9.28666296E+00
  3.16392696E+00  7.86827235E+00  1.88128854E+00  5.44249258E-01  1.68714478E-01
  4.38000000E-02  1.87311370E+01  2.82539436E+00  6.40121692E-01  1.61277759E-01
  1.87311370E+01  2.82539436E+00  6.40121692E-01  1.61277759E-01  1.87311370E+01
  2.82539436E+00  6.40121692E-01  1.61277759E-01  5.48467166E+03  8.25234946E+02
  1.88046958E+02  5.29645000E+01  1.68975704E+01  5.79963534E+00  1.55396162E+01
  3.59993359E+00  1.01376175E+00  2.70005823E-01  8.45000000E-02  1.87311370E+01
  2.82539436E+00  6.40121692E-01  1.61277759E-01
Contraction coefficients                   R   N=          38
  1.83473713E-03  1.40373228E-02  6.88426223E-02  2.32184443E-01  4.67941348E-01
  3.62311985E-01 -1.19332420E-01 -1.60854152E-01  1.14345644E+00  1.00000000E+00
  1.00000000E+00  3.34946043E-02  2.34726953E-01  8.13757326E-01  1.00000000E+00
  3.34946043E-02  2.34726953E-01  8.13757326E-01  1.00000000E+00  3.34946043E-02
  2.34726953E-01  8.13757326E-01  1.00000000E+00  1.83107443E-03  1.39501722E-02
  6.84450781E-02  2.32714336E-01  4.70192898E-01  3.58520853E-01 -1.10777550E-01
 -1.48026263E-01  1.13076702E+00  1.00000000E+00  1.00000000E+00  3.34946043E-02
  2.34726953E-01  8.13757326E-01  1.00000000E+00
P(S=P) Contraction coefficients            R   N=          38
  0.00000000E+00  0.00000000E+00  0.00000000E+00  0.00000000E+00  0.00000000E+00
  0.00000000E+00  6.89990666E-02  3.16423961E-01  7.44308291E-01  1.00000000E+00
  1.00000000E+00  0.00000000E+00  0.00000000E+00  0.00000000E+00  0.00000000E+00
  0.00000000E+00  0.00000000E+00  0.00000000E+00  0.00000000E+00  0.00000000E+00
  0.00000000E+00  0.00000000E+00  0.00000000E+00  0.00000000E+00  0.00000000E+00
  0.00000000E+00  0.00000000E+00  0.00000000E+00  0.00000000E+00  7.08742682E-02
  3.39752839E-01  7.27158577E-01  1.00000000E+00  1.00000000E+00  0.00000000E+00
  0.00000000E+00  0.00000000E+00  0.00000000E+00
Coordinates of each shell                  R   N=          48
  1.54812348E+00 -3.35035588E-02  2.89202217E-05  1.54812348E+00 -3.35035588E-02
  2.89202217E-05  1.54812348E+00 -3.35035588E-02  2.89202217E-05  1.54812348E+00
 -3.35035588E-02  2.89202217E-05  2.10403393E+00  1.94478414E+00 -1.51623340E-04
  2.10403393E+00  1.94478414E+00 -1.51623340E-04  2.06818869E+00 -1.02508214E+00
  1.73101349E+00  2.06818869E+00 -1.02508214E+00  1.73101349E+00  2.06824861E+00
 -1.02541578E+00 -1.73074618E+00  2.06824861E+00 -1.02541578E+00 -1.73074618E+00
 -1.65390370E+00  2.26110558E-01 -5.25129830E-05 -1.65390370E+00  2.26110558E-01
 -5.25129830E-05 -1.65390370E+00  2.26110558E-01 -5.25129830E-05 -1.65390370E+00
  2.26110558E-01 -5.25129830E-05 -2.29798250E+00 -1.50214934E+00  1.30897979E-04
 -2.29798250E+00 -1.50214934E+00  1.30897979E-04
Constraint Structure                       R   N=          18
  1.54812348E+00 -3.35035588E-02  2.89202217E-05  2.10403393E+00  1.94478414E+00
 -1.51623340E-04  2.06818869E+00 -1.02508214E+00  1.73101349E+00  2.06824861E+00
 -1.02541578E+00 -1.73074618E+00 -1.65390370E+00  2.26110558E-01 -5.25129830E-05
 -2.29798250E+00 -1.50214934E+00  1.30897979E-04
Num ILSW                                   I              100
ILSW                                       I   N=         100
           0           1           0           0           2           0
           0           0           0           0        3226          -1
           0           0           0           0           2           0
           0           0           1           0           1           0
           1           0           0           0           0           0
           0           0      100000           0          -1           0
           0           0           0           0           0           0
           0           0           0           1           0           0
           0           0           1           0           0           0
           0           0           4          41           0           0
           0           0          34           0           0           0
           0           0           0           0           0           0
           0           0           0           0           0           0
           0           0           0           0           0           0
           0           0           0           0           0           0
           0           0           0           0           0           0
           0           0           0           0
Num RLSW                                   I               41
RLSW                                       R   N=          41
  1.00000000E+00  1.00000000E+00  1.00000000E+00  1.00000000E+00  4.20000000E-01
  0.00000000E+00  0.00000000E+00  1.00000000E+00  0.00000000E+00  0.00000000E+00
  0.00000000E+00  0.00000000E+00  1.00000000E+00  0.00000000E+00  0.00000000E+00
  0.00000000E+00  0.00000000E+00  1.00000000E+00  0.00000000E+00  0.00000000E+00
  0.00000000E+00  0.00000000E+00  1.00000000E+00  0.00000000E+00  0.00000000E+00
  0.00000000E+00  0.00000000E+00  1.00000000E+00  0.00000000E+00  0.00000000E+00
  0.00000000E+00  0.00000000E+00  1.00000000E+00  0.00000000E+00  0.00000000E+00
  0.00000000E+00  0.00000000E+00  0.00000000E+00  1.00000000E+00  1.00000000E+00
  0.00000000E+00
MxBond                                     I                4
NBond                                      I   N=           6
           4           1           1           1           2           1
IBond                                      I   N=          24
           2           3           4           5           1           0
           0           0           1           0           0           0
           1           0           0           0           1           6
           0           0           5           0           0           0
RBond                                      R   N=          24
  1.00000000E+00  1.00000000E+00  1.00000000E+00  1.00000000E+00  1.00000000E+00
  0.00000000E+00  0.00000000E+00  0.00000000E+00  1.00000000E+00  0.00000000E+00
  0.00000000E+00  0.00000000E+00  1.00000000E+00  0.00000000E+00  0.00000000E+00
  0.00000000E+00  1.00000000E+00  1.00000000E+00  0.00000000E+00  0.00000000E+00
  1.00000000E+00  0.00000000E+00  0.00000000E+00  0.00000000E+00
Virial Ratio                               R      2.008116275298007E+00
SCF Energy                                 R     -1.155972406939498E+02
Total Energy                               R     -1.155972406939498E+02
RMS Force                                  R      2.362793038404427E-02
RMS Density                                R      5.707836098995259E-10
External E-field                           R   N=          35
  0.00000000E+00  0.00000000E+00  0.00000000E+00  0.00000000E+00  0.00000000E+00
  0.00000000E+00  0.00000000E+00  0.00000000E+00  0.00000000E+00  0.00000000E+00
  0.00000000E+00  0.00000000E+00  0.00000000E+00  0.00000000E+00  0.00000000E+00
  0.00000000E+00  0.00000000E+00  0.00000000E+00  0.00000000E+00  0.00000000E+00
  0.00000000E+00  0.00000000E+00  0.00000000E+00  0.00000000E+00  0.00000000E+00
  0.00000000E+00  0.00000000E+00  0.00000000E+00  0.00000000E+00  0.00000000E+00
  0.00000000E+00  0.00000000E+00  0.00000000E+00  0.00000000E+00  0.00000000E+00
IOpCl                                      I                0
IROHF                                      I                0
Alpha Orbital Energies                     R   N=          34
 -1.95509038E+01 -1.05362182E+01 -1.05959141E+00 -7.69408096E-01 -5.20468144E-01
 -4.93689362E-01 -4.58950777E-01 -3.80633788E-01 -3.27276776E-01  2.65757886E-02
  4.89469141E-02  8.62789395E-02  8.90575632E-02  1.32159370E-01  1.94741905E-01
  2.20147699E-01  2.29368875E-01  2.36568953E-01  2.69503734E-01  2.96258584E-01
  3.03985075E-01  3.82594543E-01  6.78108755E-01  6.81640947E-01  6.97893756E-01
  1.04713435E+00  1.05066040E+00  1.10523673E+00  1.15801311E+00  1.27467690E+00
  1.29226398E+00  1.34614495E+00  1.37834169E+00  1.83263974E+00
Alpha MO coefficients                      R   N=        1156
 -1.02938678E-04 -1.99193984E-04 -5.50130776E-04  3.38407895E-05 -1.38309023E-08
  1.81744893E-03 -6.34285154E-04 -2.75485600E-06 -2.33386148E-09 -3.64494921E-03
  2.48499232E-03 -1.00183956E-04  5.41474989E-08 -2.06486455E-04 -7.49502473E-04
 -2.68422416E-04 -4.86656096E-04 -2.68421947E-04 -4.86645220E-04  9.95349424E-01
  2.72542151E-02  7.78431134E-04 -1.58138366E-03  1.89925423E-07 -1.50597124E-02
 -1.47568256E-03  1.35440403E-03 -1.76547154E-07  8.99511528E-03  1.95835798E-03
  7.74802112E-06  3.01777784E-08  3.79097040E-04  1.22843064E-03  9.95513011E-01
  3.62039528E-02 -6.14978410E-04 -2.50300865E-05 -6.78711666E-09 -3.20754679E-02
  2.23856060E-03 -3.91207198E-04  7.00572863E-08 -5.37331439E-03  1.82877084E-03
 -7.21628736E-05  3.52707726E-08 -5.48110657E-04  6.50162158E-03 -5.95065337E-04
  6.15304990E-03 -5.95064844E-04  6.15303973E-03 -1.17471342E-05  4.46290753E-04
  2.29711087E-04  1.92176212E-05  1.45329094E-09  4.48774527E-04  1.42100226E-03
 -4.12201750E-04  7.02766825E-08  1.07824106E-02  3.65380448E-03 -1.11732079E-03
  1.84481802E-07 -2.44311312E-05 -1.45235511E-03 -4.68361117E-02  8.60279421E-02
 -5.16947466E-02  3.19415099E-04 -8.43662942E-07  6.69223496E-02 -5.00400633E-03
 -7.23057060E-03  5.49452537E-07  2.58617891E-02 -1.56560893E-02  2.03045279E-05
 -3.32392830E-07  1.86478327E-02  7.24844560E-03  1.92207621E-02 -3.81913961E-03
  1.92207424E-02 -3.81938881E-03 -2.09728477E-01  4.63126763E-01  1.59045908E-02
 -1.20341252E-01  1.37522529E-05  4.83059275E-01  2.77411915E-02 -5.82309482E-02
  6.99525030E-06 -2.10755399E-02 -1.99596354E-02 -7.23565656E-03  5.20570062E-07
  1.59605034E-01 -1.46927818E-02 -1.93516050E-01  3.74831561E-01  6.15956486E-02
 -8.17602122E-04  1.22856132E-06  4.00202109E-01  1.37598789E-02 -8.41271970E-03
  1.19969874E-06  2.25151931E-02 -1.49877508E-03 -5.17868197E-04  2.66308872E-08
  1.43980887E-01  3.30768199E-02  1.44805762E-01  3.11802916E-02  1.44805660E-01
  3.11802491E-02  4.53067593E-02 -1.05769834E-01  1.12913612E-01  6.04053465E-02
 -4.91082928E-06 -1.26233536E-01  4.26682945E-02  2.69985498E-02 -2.31686642E-06
 -3.66457443E-02 -7.32412688E-03  4.74834012E-03 -6.46289673E-07 -8.11960334E-02
 -1.05585811E-02  1.08664163E-02 -2.45278620E-02 -1.24850170E-01  3.04434231E-01
 -3.67513651E-05 -9.11307826E-03 -5.62237885E-02  1.49639205E-01 -1.75419542E-05
 -2.26870570E-03 -1.57193572E-03  1.38520054E-02 -1.45881699E-06  1.37363879E-01
  7.14000138E-02 -1.19386188E-01 -7.14997949E-02 -1.19380861E-01 -7.14958414E-02
 -4.67357181E-02  1.05008288E-01  1.94040342E-01  3.24608983E-01 -3.33602331E-05
  1.73331022E-01  1.06391869E-01  1.65090985E-01 -1.68613256E-05  2.08918928E-02
 -1.12466170E-02  7.06928974E-03 -1.05302822E-06 -2.01369270E-01 -1.24630353E-01
  9.28931627E-08 -2.04286490E-07 -8.32257142E-06  5.03931929E-05  4.52822594E-01
 -2.23177940E-07 -3.55231818E-06  2.12508018E-05  1.86521533E-01 -2.66582707E-08
 -2.28235467E-07  1.42355888E-06  1.14734819E-02  3.78962386E-06  2.18930235E-06
  2.35486360E-01  1.71155859E-01 -2.35490585E-01 -1.71158104E-01 -8.24604500E-08
  1.86077801E-07 -1.45670755E-06  1.72644098E-05  1.46250981E-01  2.66931335E-07
 -9.38848592E-07  1.03986727E-05  8.87080706E-02 -1.18751966E-07 -1.35538687E-07
  1.07358690E-06  9.22532016E-03 -6.46105108E-07 -1.81147613E-07 -7.00102966E-03
  1.95520996E-02  2.15732868E-01  3.37519935E-01 -3.30968552E-05  2.60149767E-03
  1.14420761E-01  1.56802876E-01 -1.49118690E-05  6.45314583E-03  5.87392117E-03
  1.59880949E-02 -1.57446976E-06  2.56977329E-01  1.79292597E-01 -6.03804627E-02
 -4.38233869E-02 -6.03756461E-02 -4.38195102E-02  2.19990204E-02 -4.54020478E-02
 -2.87025129E-01 -1.83847445E-01  1.65183408E-05 -9.66077258E-02 -1.73591385E-01
 -8.94818731E-02  7.55752570E-06 -1.80719085E-02 -1.14569448E-02 -1.77200367E-02
  1.77430557E-06  1.71281457E-01  1.09620636E-01  1.03935673E-02 -2.28583811E-02
  2.42064721E-01 -1.31283750E-01  1.87551395E-05 -3.23859382E-02  1.29429517E-01
 -1.04602101E-02  3.48501170E-06 -9.22781307E-04  2.02734285E-02 -2.16287488E-03
  6.51957499E-07 -5.31921563E-02 -6.89019365E-02  8.24871989E-02  9.33190656E-02
  8.24846778E-02  9.33164091E-02 -6.03381643E-02  1.47607162E-01 -3.54618057E-01
  3.86763611E-01 -4.91107198E-05  2.15137674E-01 -2.39545723E-01  2.40655818E-01
 -3.08705509E-05  7.64199427E-02 -4.66855044E-02  4.23162948E-02 -5.49561246E-06
 -1.06669316E-01 -8.99795752E-02  6.66606202E-09  4.75563926E-09  2.06031111E-06
 -1.43877728E-05 -1.26150094E-01 -1.24644129E-07  3.84753230E-07 -2.81536527E-06
 -2.56971574E-02 -1.10941489E-07  3.02679198E-07 -1.76645407E-06 -1.64572148E-02
 -1.73126536E-06 -2.28919920E-06 -9.28561664E-02 -1.07325290E-01  9.28578300E-02
  1.07327658E-01 -1.30619013E-08  2.31802593E-08 -1.01356725E-05  7.07519722E-05
  6.31134290E-01  6.33668798E-08 -6.94984647E-06  4.85651089E-05  4.33514001E-01
  7.82624302E-08 -1.88965102E-06  1.33235445E-05  1.18457317E-01 -7.83199576E-08
 -4.60313103E-10  4.80784258E-02 -8.13808288E-02  2.99970553E-01 -1.48802572E-02
  6.97463481E-06 -3.24429402E-01  4.98237470E-01 -1.07005623E-02  1.05743179E-05
 -6.12329644E-01  9.60493806E-01  7.18076313E-02  8.57518971E-06 -2.38919710E-02
 -1.24057087E-01 -8.32844368E-03 -3.06870077E-02 -8.32843753E-03 -3.06864828E-02
 -6.22495214E-02  1.52030526E-01  2.40382200E-01 -1.29728095E-01  1.83304503E-05
  3.81325610E-01  2.78982164E-01 -1.61285539E-01  2.24899615E-05  9.95532186E-01
  2.92842686E-01 -4.83174566E-02  9.90400068E-06 -5.40930067E-02 -2.92705965E-01
  7.25876678E-02 -1.99475471E-01 -2.69446861E-02  4.89534764E-02 -6.18176760E-06
 -3.22625177E-01 -1.46134433E-01  2.36646259E-02 -6.09256499E-06  1.87081749E+00
 -9.53106755E-02 -3.42164344E-01  3.62982548E-05  2.13368145E-02 -3.56906520E-02
  1.15410621E-02 -1.63141131E-01  1.15411007E-02 -1.63141255E-01  1.02599320E-02
 -3.75804372E-02  9.86777168E-02  5.55812094E-02 -4.54550794E-06 -1.87957323E-02
  8.57598357E-02  8.12158611E-02 -7.59861690E-06 -9.71499861E-01 -2.64282802E-01
  1.46249751E-01 -2.05488200E-05  1.91226552E-02  2.59259957E-01  1.07623183E-02
 -3.79841673E-02 -9.92020131E-02 -1.59628682E-01  1.47989699E-05 -4.82741341E-02
 -1.84174637E-01 -6.95444587E-02  4.76038745E-06  5.91784532E-01  1.11478342E-02
  1.31804036E+00 -1.34839134E-04 -9.53972250E-03 -2.92455698E-01  1.73758625E-02
  1.19475009E-01  1.73758354E-02  1.19473939E-01  1.21217555E-02 -3.59642379E-02
 -3.64809403E-02 -4.19742846E-02  3.62721872E-06 -3.24505305E-02 -6.36009817E-02
 -1.11489043E-02  2.47317460E-07 -1.86731410E-01 -1.96381308E-01 -4.17046283E-01
  4.03829777E-05  6.23364082E-03 -1.95321515E-01 -8.67069376E-08  3.03134156E-07
  3.94918795E-06 -1.90107449E-05 -1.85407711E-01  3.62249047E-07  4.11825322E-06
 -1.59298700E-05 -1.64705459E-01 -4.18785047E-06 -2.36365031E-05  1.39919945E-04
  1.35267525E+00 -2.39523826E-07 -2.79914639E-06 -1.32299810E-02 -1.80288708E-01
  1.32300613E-02  1.80292388E-01 -9.69967868E-08  2.52492603E-07  1.05391563E-06
 -4.47220046E-06 -4.24221715E-02  3.95424907E-07  2.15464795E-07  2.01593266E-06
  1.85361580E-02 -8.72537982E-08  7.09589209E-06 -3.45272075E-05 -3.42611814E-01
 -1.25976379E-07  1.98669718E-06 -4.49170390E-02  1.19137953E-01 -4.29573400E-01
  2.42835081E-02 -9.98537470E-06  1.23905093E-01 -6.28399902E-01 -5.81045732E-03
 -1.01679908E-05 -8.79763213E-01  1.41695371E+00 -2.30050238E-01  4.94792786E-05
  2.04803435E-02  1.14221055E-01 -3.84972619E-03 -7.83828546E-04 -3.84943443E-03
 -7.82091350E-04  3.40387756E-02 -2.88567104E-02 -3.17407372E-01  1.25842131E-02
 -6.58680564E-06 -4.78608531E-01 -4.07831074E-01 -1.84935916E-02 -4.57505525E-06
  1.40268798E+00  1.18438425E-01  3.33756460E-02 -1.80597030E-06  1.21614310E-03
 -1.25476807E-01 -5.08075745E-02  6.89110363E-02  7.37693614E-02 -6.89112957E-02
  7.58447079E-06  8.70819420E-01  3.14272884E-01 -1.32181337E-01  1.32127249E-05
 -3.99880721E-01  7.25882586E-01  2.25714775E-01 -1.52121692E-05 -5.11164568E-02
 -1.91636739E-01 -6.28696434E-02 -5.71071979E-01 -6.28704782E-02 -5.71081029E-01
  3.82481626E-02 -6.59163666E-02  1.69707040E-01  2.30422364E-01 -2.26782690E-05
 -5.17293396E-01  3.23621961E-01  3.39002146E-01 -3.20796829E-05  1.22918987E+00
 -5.22377683E-01 -6.41156513E-01  6.37684404E-05  9.97313382E-02  2.96865743E-01
  1.93938596E-02 -3.32905637E-02  2.29956514E-02 -3.21989563E-01  2.85997866E-05
 -3.21298771E-01  1.59754670E-02 -1.39770191E+00  1.24098613E-04 -1.61359044E-01
 -5.67483874E-02 -3.86996815E-01  3.37323702E-05  1.63845205E-01  1.88398444E+00
 -7.03617415E-02 -8.26556490E-01 -7.03638870E-02 -8.26583807E-01 -8.32258272E-03
  2.96378204E-02 -3.21859809E-02  9.78774826E-02 -9.18837990E-06 -9.38742572E-03
 -3.69456549E-02  2.20316218E-01 -2.14187681E-05 -2.73898277E-01  5.50975248E-01
  2.65310721E-01 -2.16787081E-05  1.17991114E-02  5.29948816E-01  1.63875073E-06
 -1.34252652E-06  5.96913797E-06 -2.96410199E-05 -3.66743166E-01 -3.33284330E-05
  2.47236038E-05 -1.14360096E-04 -1.42858107E+00 -3.58759063E-05  1.94749871E-05
 -3.52379578E-05 -4.96550077E-01 -2.05013405E-06 -1.93845587E-05  1.31721714E-01
  1.73989748E+00 -1.31716554E-01 -1.73983236E+00  7.25186151E-07 -5.67226901E-07
 -5.72383571E-07  1.58807094E-05  1.07578597E-01 -1.43130778E-05 -2.10066680E-06
  2.68230535E-05  1.79687045E-01  1.75490097E-05  2.40365208E-05 -4.18713203E-06
 -1.27277819E-02  4.42808250E-06  3.19091158E-05  8.17174144E-02 -6.67599146E-02
  1.31722117E-03  1.03647015E-01 -2.15858305E-06 -1.67612548E+00  1.24578119E-01
  4.91164877E-01 -1.72482445E-05 -1.66235289E+00  4.93351513E-01  5.08473927E-01
 -3.85735364E-05 -9.71572286E-03 -1.50219838E-02  7.64315186E-02  9.37719643E-01
  7.64372368E-02  9.37790487E-01  1.10044563E-02  1.26484771E-02  1.06766656E-02
  2.23070385E-01 -2.83457421E-05 -3.98907688E-01 -3.54390345E-02  3.36188162E-01
 -4.41173591E-05  1.80324423E+00  1.15318693E+00 -9.90986053E-01  1.34692378E-04
  9.95076070E-02  2.00953798E-01 -1.22175896E-07 -1.40678688E-07  1.38472869E-06
 -7.11031365E-06 -6.55353024E-02  3.85348823E-06  6.73617617E-06 -5.23603735E-05
 -4.66065155E-01  1.13577659E-06  1.19684726E-05 -8.53702835E-05 -7.31102795E-01
  2.37848994E-07  3.52940006E-06  2.24276400E-02  3.92019198E-01 -2.24282291E-02
 -3.92022557E-01  3.40538229E-07 -5.91941879E-07  4.92880522E-06 -2.80331821E-05
 -2.49470749E-01 -4.44580807E-06  9.41162918E-06 -5.00948152E-05 -4.55430310E-01
 -1.63358612E-05 -2.66245898E-05  1.99717313E-04  1.60406750E+00  1.27427660E-06
  2.28286476E-05  5.14998844E-02 -8.22313302E-02  2.24592190E-02  1.49815170E-02
  4.40844739E-06 -9.16382956E-01  1.27330909E-02 -1.25070468E-01  3.54603473E-05
 -1.46113176E+00  5.57521001E-01 -4.33146101E-01  7.12220300E-05 -4.27442058E-03
  4.16130280E-01  2.83307853E-02  6.61538254E-01  2.83338266E-02  6.61587269E-01
  5.75256212E-02 -8.98597544E-02  1.50436349E-01  2.98394427E-02 -2.27898316E-07
 -8.72577660E-01  2.94987576E-01  6.23568217E-02 -5.27058810E-07  6.59657382E-01
  3.79636949E-01  1.77030306E+00 -2.05661165E-04  1.59420475E-01  1.97033716E+00
  1.02884609E-01 -1.50900191E-01 -7.54111475E-02 -6.38467342E-02  1.73610173E-06
 -1.87604374E+00 -2.85014849E-01 -2.32819808E-01  6.46272539E-06 -1.67630737E+00
  3.56060345E-01 -3.28913435E-02  1.59625406E-06  1.14368078E-01  1.84347950E+00
  4.86378576E-02  1.12163026E+00  4.86364899E-02  1.12160621E+00 -1.46489026E-02
  2.63499361E-02  1.15112955E-01 -1.01209160E-01  1.33370097E-05  2.05937888E-01
  2.26070294E-01 -2.40764021E-01  3.06971800E-05  1.91013669E+00 -9.28487405E-01
 -7.76765742E-01  7.67990131E-05 -1.08720451E-01 -1.52277382E+00  8.41658759E-03
  2.69220927E-02  1.37030541E-01 -3.29051200E-02  1.69895093E-06 -5.14086044E-01
  8.16132752E-01 -9.21438746E-02  1.43612541E-05 -1.57915328E+00  1.00463251E+00
 -7.16967539E-02  1.75705535E-05  2.80758268E-03 -3.70083556E-01 -5.69887011E-02
 -6.94534182E-01 -5.69897617E-02 -6.94557104E-01  3.79307395E-02 -5.07357339E-02
 -4.62393251E-02 -1.32180708E-01  1.41624093E-05 -7.12671117E-01 -1.50496816E-01
 -4.76863482E-01  5.08286521E-05  5.74016914E+00  1.42937578E+00 -1.01422953E+00
  1.41416362E-04 -1.07428721E-01 -2.42746245E+00  1.89259589E-03 -2.99486405E-02
 -5.45096140E-01 -8.33691054E-01  7.24119194E-05 -1.19843690E-01  1.08079701E+00
  1.60031971E+00 -1.39094075E-04 -2.46038971E-01 -2.33723368E-01 -3.88285527E-01
  3.38405234E-05 -3.30605187E-01 -3.94698048E-01  3.93128676E-02  1.14029893E-01
  3.93114325E-02  1.14028189E-01  4.41815891E-03 -8.27678947E-02 -8.81750958E-02
 -3.22182570E-02  1.46417092E-06  2.62521137E-01  2.01806046E-01 -1.54131714E-01
  1.89498443E-05  5.43770043E-01  3.01344592E-01 -1.66367819E-01  2.29357090E-05
  4.35383423E-02 -2.14069332E-01  3.34728198E-03 -1.64779009E-01 -8.00934026E-01
  5.30803503E-01 -6.57968298E-05 -1.09019545E-02  1.69284982E+00 -1.06633468E+00
  1.33459766E-04 -4.31815589E-01 -3.81203275E-01  2.37593673E-01 -2.98344835E-05
 -2.01116948E-02  1.63397091E-01 -2.52040182E-01 -1.69543778E-01 -2.52039786E-01
 -1.69543546E-01 -9.78457922E-04 -1.19560016E-01 -1.89634695E-01  3.32250649E-02
 -6.35647381E-06  4.99953214E-01  4.44610843E-01 -6.79079724E-03  8.88330153E-06
  5.71810774E-01  4.22806362E-01  1.80282574E-02  5.66890059E-06 -6.71142750E-02
  1.39613195E-02 -7.07205317E-08  1.21563094E-07  1.65515639E-05 -9.57518246E-05
 -9.77541809E-01  2.23074828E-06 -3.58945457E-05  1.97976869E-04  2.01834458E+00
  4.39053420E-06  4.50517532E-06 -4.09247457E-05 -4.07281909E-01 -8.96592855E-07
 -9.49316337E-07 -2.64006947E-01 -4.49677532E-01  2.64007851E-01  4.49679804E-01
  4.44156031E-08 -4.70820140E-07  1.45269426E-06 -6.09651444E-06 -7.56484054E-02
  8.49684194E-07  3.06575615E-06 -1.05245209E-05 -1.18097345E-01 -1.67187805E-05
  3.11358089E-07 -6.20753137E-06 -1.32323963E-01  1.49716502E-06  1.14335096E-05
  1.21126170E-02 -6.58210529E-02 -6.08977026E-02  5.52071214E-01 -9.68504434E-05
  1.64262791E-01  1.07145868E-01 -7.27880474E-01  1.29435342E-04  2.12595851E-02
  8.79129727E-02 -3.11739750E-01  5.80580129E-05 -8.41869907E-01  1.39860403E+00
  6.23410744E-01 -1.03834838E+00  6.23283629E-01 -1.03813151E+00 -4.04346054E-03
  1.16867213E-01 -6.17924412E-02 -4.13767064E-01  6.16291132E-05 -2.39956366E-01
  8.32052064E-02  5.64788186E-01 -8.52632511E-05  2.27762696E-01  9.30983715E-02
 -1.74377517E-01  2.71015694E-05 -6.29345511E-02  1.87848902E-01 -5.75520020E-07