Title Card Required                                                     
Freq      RBMK                                                        6-31+G              
Number of atoms                            I                6
Info1-9                                    I   N=           9
          20          20        1002           0           0         100
           6          18        -402
Full Title                                 C   N=           2
Title Card Required     
Route                                      C   N=           6
#N Geom=AllCheck Guess=TCheck SCRF=Check GenChk RBMK/6-31+G 
Freq        
Charge                                     I                0
Multiplicity                               I                1
Number of electrons                        I               18
Number of alpha electrons                  I                9
Number of beta electrons                   I                9
Number of basis functions                  I               34
Number of independent functions            I               34
Number of point charges in /Mol/           I                0
Number of translation vectors              I                0
Atomic numbers                             I   N=           6
           6           1           1           1           8           1
Nuclear charges                            R   N=           6
  6.00000000E+00  1.00000000E+00  1.00000000E+00  1.00000000E+00  8.00000000E+00
  1.00000000E+00
Current cartesian coordinates              R   N=          18
  1.29417810E+00 -4.32713119E-02 -5.45952627E-06  2.04157734E+00  1.87996481E+00
  1.24203760E-03  1.96311705E+00 -1.03552819E+00  1.69734955E+00  1.96333305E+00
 -1.03345246E+00 -1.69848973E+00 -1.42964555E+00  2.29404703E-01 -6.75348554E-06
 -2.29593165E+00 -1.38659392E+00 -1.50733683E-05
Number of symbols in /Mol/                 I                0
Redundant internal dimensions              I   N=           4
          15           5           7           3
Redundant internal coordinate indices      I   N=          60
           1           2           0           0           1           3
           0           0           1           4           0           0
           1           5           0           0           5           6
           0           0           2           1           3           0
           2           1           4           0           2           1
           5           0           3           1           4           0
           3           1           5           0           4           1
           5           0           1           5           6           0
           2           1           5           6           3           1
           5           6           4           1           5           6
Redundant internal coordinates             R   N=          15
  2.06335755E+00  2.07679249E+00  2.07679461E+00  2.73743812E+00  1.83354933E+00
  1.90516186E+00  1.90518195E+00  1.84167462E+00  1.91434964E+00  1.94775283E+00
  1.94775582E+00  1.96310537E+00 -3.14097002E+00 -1.07379153E+00  1.07501112E+00
ZRed-IntVec                                I   N=          15
           0           0           0           0           0           0
           0           0           0           0           0           0
           0           0           0
ZRed-FPVec                                 R   N=          15
  0.00000000E+00  0.00000000E+00  0.00000000E+00  0.00000000E+00  0.00000000E+00
  0.00000000E+00  0.00000000E+00  0.00000000E+00  0.00000000E+00  0.00000000E+00
  0.00000000E+00  0.00000000E+00  0.00000000E+00  0.00000000E+00  0.00000000E+00
ZRed-Constraint1                           R   N=          15
  2.06335755E+00  2.07679249E+00  2.07679461E+00  2.73743812E+00  1.83354933E+00
  1.90516186E+00  1.90518195E+00  1.84167462E+00  1.91434964E+00  1.94775283E+00
  1.94775582E+00  1.96310537E+00 -3.14097002E+00 -1.07379153E+00  1.07501112E+00
ZRed-Constraint2                           R   N=          15
  2.02200698E+00  2.02200696E+00  2.02200696E+00  2.70230837E+00  1.81413709E+00
  1.91063292E+00  1.91063342E+00  1.91063292E+00  1.91063320E+00  1.91063376E+00
  1.91063320E+00  1.91113553E+00  3.13963822E+00 -1.04915225E+00  1.04524311E+00
Force Field                                I                0
Atom Types                                 C   N=           6
                                                            
            
Int Atom Types                             I   N=           6
           0           0           0           0           0           0
MM charges                                 R   N=           6
  0.00000000E+00  0.00000000E+00  0.00000000E+00  0.00000000E+00  0.00000000E+00
  0.00000000E+00
Integer atomic weights                     I   N=           6
          12           1           1           1          16           1
Real atomic weights                        R   N=           6
  1.20000000E+01  1.00782504E+00  1.00782504E+00  1.00782504E+00  1.59949146E+01
  1.00782504E+00
Atom fragment info                         I   N=           6
           0           0           0           0           0           0
Atom residue num                           I   N=           6
           0           0           0           0           0           0
Nuclear spins                              I   N=           6
           0           1           1           1           0           1
Nuclear ZEff                               R   N=           6
 -3.60000000E+00 -1.00000000E+00 -1.00000000E+00 -1.00000000E+00 -5.60000000E+00
 -1.00000000E+00
Nuclear ZNuc                               R   N=           6
  6.00000000E+00  1.00000000E+00  1.00000000E+00  1.00000000E+00  8.00000000E+00
  1.00000000E+00
Nuclear QMom                               R   N=           6
  0.00000000E+00  0.00000000E+00  0.00000000E+00  0.00000000E+00  0.00000000E+00
  0.00000000E+00
Nuclear GFac                               R   N=           6
  0.00000000E+00  2.79284600E+00  2.79284600E+00  2.79284600E+00  0.00000000E+00
  2.79284600E+00
MicOpt                                     I   N=           6
          -1          -1          -1          -1          -1          -1
Number of residues                         I                0
Number of secondary structures             I                0
Number of contracted shells                I               16
Number of primitive shells                 I               38
Pure/Cartesian d shells                    I                1
Pure/Cartesian f shells                    I                0
Highest angular momentum                   I                1
Largest degree of contraction              I                6
Shell types                                I   N=          16
           0          -1          -1          -1           0           0
           0           0           0           0           0          -1
          -1          -1           0           0
Number of primitives per shell             I   N=          16
           6           3           1           1           3           1
           3           1           3           1           6           3
           1           1           3           1
Shell to atom map                          I   N=          16
           1           1           1           1           2           2
           3           3           4           4           5           5
           5           5           6           6
Primitive exponents                        R   N=          38
  3.04752488E+03  4.57369518E+02  1.03948685E+02  2.92101553E+01  9.28666296E+00
  3.16392696E+00  7.86827235E+00  1.88128854E+00  5.44249258E-01  1.68714478E-01
  4.38000000E-02  1.87311370E+01  2.82539436E+00  6.40121692E-01  1.61277759E-01
  1.87311370E+01  2.82539436E+00  6.40121692E-01  1.61277759E-01  1.87311370E+01
  2.82539436E+00  6.40121692E-01  1.61277759E-01  5.48467166E+03  8.25234946E+02
  1.88046958E+02  5.29645000E+01  1.68975704E+01  5.79963534E+00  1.55396162E+01
  3.59993359E+00  1.01376175E+00  2.70005823E-01  8.45000000E-02  1.87311370E+01
  2.82539436E+00  6.40121692E-01  1.61277759E-01
Contraction coefficients                   R   N=          38
  1.83473713E-03  1.40373228E-02  6.88426223E-02  2.32184443E-01  4.67941348E-01
  3.62311985E-01 -1.19332420E-01 -1.60854152E-01  1.14345644E+00  1.00000000E+00
  1.00000000E+00  3.34946043E-02  2.34726953E-01  8.13757326E-01  1.00000000E+00
  3.34946043E-02  2.34726953E-01  8.13757326E-01  1.00000000E+00  3.34946043E-02
  2.34726953E-01  8.13757326E-01  1.00000000E+00  1.83107443E-03  1.39501722E-02
  6.84450781E-02  2.32714336E-01  4.70192898E-01  3.58520853E-01 -1.10777550E-01
 -1.48026263E-01  1.13076702E+00  1.00000000E+00  1.00000000E+00  3.34946043E-02
  2.34726953E-01  8.13757326E-01  1.00000000E+00
P(S=P) Contraction coefficients            R   N=          38
  0.00000000E+00  0.00000000E+00  0.00000000E+00  0.00000000E+00  0.00000000E+00
  0.00000000E+00  6.89990666E-02  3.16423961E-01  7.44308291E-01  1.00000000E+00
  1.00000000E+00  0.00000000E+00  0.00000000E+00  0.00000000E+00  0.00000000E+00
  0.00000000E+00  0.00000000E+00  0.00000000E+00  0.00000000E+00  0.00000000E+00
  0.00000000E+00  0.00000000E+00  0.00000000E+00  0.00000000E+00  0.00000000E+00
  0.00000000E+00  0.00000000E+00  0.00000000E+00  0.00000000E+00  7.08742682E-02
  3.39752839E-01  7.27158577E-01  1.00000000E+00  1.00000000E+00  0.00000000E+00
  0.00000000E+00  0.00000000E+00  0.00000000E+00
Coordinates of each shell                  R   N=          48
  1.29417810E+00 -4.32713119E-02 -5.45952627E-06  1.29417810E+00 -4.32713119E-02
 -5.45952627E-06  1.29417810E+00 -4.32713119E-02 -5.45952627E-06  1.29417810E+00
 -4.32713119E-02 -5.45952627E-06  2.04157734E+00  1.87996481E+00  1.24203760E-03
  2.04157734E+00  1.87996481E+00  1.24203760E-03  1.96311705E+00 -1.03552819E+00
  1.69734955E+00  1.96311705E+00 -1.03552819E+00  1.69734955E+00  1.96333305E+00
 -1.03345246E+00 -1.69848973E+00  1.96333305E+00 -1.03345246E+00 -1.69848973E+00
 -1.42964555E+00  2.29404703E-01 -6.75348554E-06 -1.42964555E+00  2.29404703E-01
 -6.75348554E-06 -1.42964555E+00  2.29404703E-01 -6.75348554E-06 -1.42964555E+00
  2.29404703E-01 -6.75348554E-06 -2.29593165E+00 -1.38659392E+00 -1.50733683E-05
 -2.29593165E+00 -1.38659392E+00 -1.50733683E-05
Constraint Structure                       R   N=          18
  1.29417810E+00 -4.32713119E-02 -5.45952627E-06  2.04157734E+00  1.87996481E+00
  1.24203760E-03  1.96311705E+00 -1.03552819E+00  1.69734955E+00  1.96333305E+00
 -1.03345246E+00 -1.69848973E+00 -1.42964555E+00  2.29404703E-01 -6.75348554E-06
 -2.29593165E+00 -1.38659392E+00 -1.50733683E-05
Num ILSW                                   I              100
ILSW                                       I   N=         100
           0           1           0           0           2           0
           0           0           0           0        3226          -1
           0           0           0           0           2           0
           0           0           1           0           1           0
           1           0           0           0           0           0
           0           0      100000           0          -1           0
           0           0           0           0           0           0
           0           0           0           1           0           0
           0           0           1           0           0           0
           0           0           4          41           0           0
           0           0          34           0           0           0
           0           0           0           0           0           0
           0           0           0           0           0           0
           0           0           0           0           0           0
           0           0           0           0           0           0
           0           0           0           0           0           0
           0           0           0           0
Num RLSW                                   I               41
RLSW                                       R   N=          41
  1.00000000E+00  1.00000000E+00  1.00000000E+00  1.00000000E+00  4.20000000E-01
  0.00000000E+00  0.00000000E+00  1.00000000E+00  0.00000000E+00  0.00000000E+00
  0.00000000E+00  0.00000000E+00  1.00000000E+00  0.00000000E+00  0.00000000E+00
  0.00000000E+00  0.00000000E+00  1.00000000E+00  0.00000000E+00  0.00000000E+00
  0.00000000E+00  0.00000000E+00  1.00000000E+00  0.00000000E+00  0.00000000E+00
  0.00000000E+00  0.00000000E+00  1.00000000E+00  0.00000000E+00  0.00000000E+00
  0.00000000E+00  0.00000000E+00  1.00000000E+00  0.00000000E+00  0.00000000E+00
  0.00000000E+00  0.00000000E+00  0.00000000E+00  1.00000000E+00  1.00000000E+00
  0.00000000E+00
MxBond                                     I                4
NBond                                      I   N=           6
           4           1           1           1           2           1
IBond                                      I   N=          24
           2           3           4           5           1           0
           0           0           1           0           0           0
           1           0           0           0           1           6
           0           0           5           0           0           0
RBond                                      R   N=          24
  1.00000000E+00  1.00000000E+00  1.00000000E+00  1.00000000E+00  1.00000000E+00
  0.00000000E+00  0.00000000E+00  0.00000000E+00  1.00000000E+00  0.00000000E+00
  0.00000000E+00  0.00000000E+00  1.00000000E+00  0.00000000E+00  0.00000000E+00
  0.00000000E+00  1.00000000E+00  1.00000000E+00  0.00000000E+00  0.00000000E+00
  1.00000000E+00  0.00000000E+00  0.00000000E+00  0.00000000E+00
Virial Ratio                               R      2.005897142464346E+00
SCF Energy                                 R     -1.156178353208529E+02
Total Energy                               R     -1.156178353208529E+02
RMS Force                                  R      4.346840957270929E-05
RMS Density                                R      3.351844848165960E-10
External E-field                           R   N=          35
  0.00000000E+00  0.00000000E+00  0.00000000E+00  0.00000000E+00  0.00000000E+00
  0.00000000E+00  0.00000000E+00  0.00000000E+00  0.00000000E+00  0.00000000E+00
  0.00000000E+00  0.00000000E+00  0.00000000E+00  0.00000000E+00  0.00000000E+00
  0.00000000E+00  0.00000000E+00  0.00000000E+00  0.00000000E+00  0.00000000E+00
  0.00000000E+00  0.00000000E+00  0.00000000E+00  0.00000000E+00  0.00000000E+00
  0.00000000E+00  0.00000000E+00  0.00000000E+00  0.00000000E+00  0.00000000E+00
  0.00000000E+00  0.00000000E+00  0.00000000E+00  0.00000000E+00  0.00000000E+00
IOpCl                                      I                0
IROHF                                      I                0
Alpha Orbital Energies                     R   N=          34
 -1.95496453E+01 -1.05219767E+01 -1.11182927E+00 -7.61188853E-01 -5.60907416E-01
 -4.96426154E-01 -4.76539359E-01 -3.75163165E-01 -3.24832392E-01  4.20452556E-02
  6.14268721E-02  8.65482010E-02  8.86428216E-02  1.94150459E-01  2.15552313E-01
  2.29097793E-01  2.37494126E-01  2.44938085E-01  2.69044867E-01  3.08457096E-01
  3.15950435E-01  3.78385496E-01  6.92278565E-01  7.00412406E-01  7.16930141E-01
  1.03566604E+00  1.03808632E+00  1.13008899E+00  1.15862097E+00  1.29379608E+00
  1.29778776E+00  1.35418035E+00  1.38668410E+00  1.89162118E+00
Alpha MO coefficients                      R   N=        1156
 -6.59320325E-06 -6.11095076E-05 -6.44785721E-04  3.14469354E-05 -5.02871874E-08
  3.62346066E-03 -1.48337979E-03  2.54619931E-05  3.96593697E-07 -3.56287561E-03
  2.45683866E-03 -1.49228971E-04  1.13960508E-07 -2.24008977E-04 -1.10954032E-03
 -3.18552502E-04 -8.15261237E-04 -3.18502557E-04 -8.14725656E-04  9.95338993E-01
  2.77905794E-02  1.02530614E-03 -1.63269695E-03 -2.36650721E-08 -1.66375893E-02
 -2.32280718E-03  1.52240829E-03 -3.35428738E-08  8.77464067E-03  1.74889056E-03
  9.08201918E-05 -4.93574971E-08  3.84021167E-04  1.39859240E-03  9.95477708E-01
  3.69767803E-02 -1.08766183E-03  3.16591173E-05  1.51332510E-07 -3.44840341E-02
  2.71786873E-03 -4.55330696E-04 -5.93825944E-07 -6.37837757E-03  1.72059623E-03
 -4.52513376E-05 -1.10142989E-07 -4.56738408E-04  5.98533325E-03 -4.86656527E-04
  5.62264792E-03 -4.86619826E-04  5.62206124E-03  3.85224172E-05  4.72290447E-04
 -2.33200083E-04  5.42230151E-05 -7.81342965E-09  9.48334908E-04  1.23619149E-03
 -3.20637937E-04  5.96298049E-08  1.41034807E-02  4.64884304E-03 -1.43204500E-03
 -2.12345479E-08  1.62721528E-04 -1.66249873E-03 -7.03990565E-02  1.33046260E-01
 -9.50811220E-02  3.39337009E-03  2.32765675E-06  5.22020440E-02  1.51785757E-02
 -8.79433906E-03 -8.30681634E-06  2.01094018E-02 -1.52240362E-02  1.67513814E-04
 -3.42859327E-06  2.26203436E-02  9.55665405E-03  2.28760426E-02 -3.24127710E-03
  2.28741977E-02 -3.25241409E-03 -2.05068130E-01  4.48145749E-01  5.26732241E-02
 -1.10068405E-01 -7.52411937E-07  4.73384129E-01  4.45058638E-02 -5.66064483E-02
  7.76043039E-07 -1.05640957E-02 -1.46361884E-02 -8.10251507E-03  1.68407345E-06
  1.40046955E-01 -2.21225293E-02 -1.82267021E-01  3.54719320E-01  5.20996344E-02
  1.18706958E-02  9.46613251E-06  3.84207600E-01  1.33377867E-02 -5.56863988E-03
  4.43974785E-06  2.34180810E-02 -5.97746275E-04 -2.27775175E-04  5.56856632E-07
  1.38132808E-01  3.27520768E-02  1.30928315E-01  2.92246714E-02  1.30925325E-01
  2.92277493E-02  5.66533339E-02 -1.28878366E-01  1.88290574E-01  9.45423956E-02
  2.92086322E-06 -1.73466453E-01  6.76238557E-02  4.54066447E-02  1.38594718E-06
 -4.79997893E-02 -7.33699384E-03  6.68888151E-03 -1.06581012E-07 -1.31124216E-01
 -2.12005138E-02  2.83677938E-02 -4.46467767E-02 -2.42764590E-01  2.12077889E-01
 -3.95722898E-06 -9.61756364E-02 -6.61324457E-02  9.99677107E-02  1.08522460E-05
 -1.11242273E-02 -5.06867058E-03  1.02580620E-02  4.57746202E-06  2.68713147E-02
  7.91024675E-03 -1.22145737E-01 -6.13880402E-02 -1.22039551E-01 -6.13093435E-02
 -4.02734238E-02  9.32802135E-02  3.00353177E-01  3.03393820E-01  1.09040017E-08
  1.49042384E-01  1.56576675E-01  1.54757049E-01 -1.17562509E-06  1.30607431E-02
 -4.11816308E-03  4.98922595E-03 -2.52344938E-06 -2.20255414E-01 -1.14918035E-01
  4.46372196E-06 -8.62108131E-06 -3.73534954E-05 -3.64333909E-05  4.26040167E-01
 -1.55462761E-05 -1.88326888E-05  1.28180456E-06  1.85323462E-01 -1.06532812E-06
 -2.40245642E-06  4.76319304E-06  1.14543249E-02  1.16917378E-04  6.06706593E-05
  2.05387437E-01  1.46257951E-01 -2.05518779E-01 -1.46319023E-01  2.78410111E-06
 -6.14148575E-06  2.91162560E-05 -9.36332629E-06  2.61024560E-01 -1.31934266E-05
  1.54711485E-05 -6.09104732E-06  1.57928165E-01 -1.16527877E-05  2.93806857E-06
  9.40104637E-07  1.55579226E-02 -7.34396728E-06  7.50776470E-06 -6.86005807E-04
 -7.02484800E-03  2.59871918E-01  3.37540756E-01  5.01511720E-05  3.98313241E-02
  9.28231112E-02  1.87569120E-01  3.86956576E-05  1.40640820E-02  7.63279042E-03
  1.84878892E-02  7.30425760E-06  2.51472682E-01  1.52138113E-01 -4.70347533E-02
 -2.45946910E-02 -4.68584337E-02 -2.44594218E-02 -2.22154165E-02  5.46017939E-02
 -3.13735857E-01  1.13895780E-01  3.76011472E-05  5.90379773E-02 -1.89308599E-01
  7.41484438E-02  2.19952090E-05  7.13089245E-04 -2.92266528E-02 -4.01798785E-04
 -1.35724992E-06  6.88078703E-02  3.86384167E-02  1.38323934E-02 -3.68973669E-02
  1.28407190E-01 -2.52010442E-01 -1.57064392E-06 -6.62672555E-03  3.91412038E-02
 -7.90769473E-02  2.03652146E-06  3.30125739E-03  1.14219569E-02 -1.33757189E-02
  2.26933781E-06 -1.61761944E-01 -1.64868199E-01  1.08264500E-01  1.21238816E-01
  1.08068314E-01  1.21037837E-01 -6.28373036E-02  1.48921153E-01 -2.10495165E-01
  4.42443585E-01 -9.45312894E-06  2.33844439E-01 -1.46156957E-01  2.86230345E-01
 -6.87894658E-06  6.43584069E-02 -4.14356244E-02  5.35472338E-02  2.05694258E-07
 -1.44107523E-01 -1.13630878E-01 -2.82125828E-08  1.60162551E-06  2.84751284E-06
 -1.41609569E-05 -1.90694258E-01 -5.43395171E-06  1.46606050E-06 -2.14454559E-06
 -6.78237327E-02 -4.95460480E-06  1.83692737E-06  2.70898341E-06 -2.58418306E-02
 -1.09713590E-04 -1.33479369E-04 -1.49174852E-01 -1.72444719E-01  1.49279224E-01
  1.72579186E-01 -2.13197932E-06  4.60991339E-06  5.02478867E-06 -1.60196483E-07
  5.92812489E-01  1.19574249E-05  4.17621987E-06 -2.38883405E-06  4.25945244E-01
  8.72521499E-06  6.22511892E-07  5.76662393E-07  1.09688389E-01 -6.76713236E-06
 -9.04159662E-06  1.72813435E-02 -1.08574309E-01 -1.31657403E-01  5.56320087E-02
 -2.04045602E-05  1.98971143E-01 -4.07320341E-01  3.76495805E-02 -6.29948164E-05
  1.94322625E+00 -9.38580664E-01 -3.38995646E-01 -4.01348384E-05  1.56187871E-02
  6.58107407E-02  7.45138833E-03 -8.37049535E-02  7.44604334E-03 -8.37173495E-02
  4.66996557E-02 -1.27952945E-01  1.23177509E-02  1.21786578E-01  9.22836491E-06
 -2.92778920E-01 -5.97340115E-02  1.75107526E-01  1.10795155E-05 -1.82323017E+00
 -3.53507301E-01  1.72018798E-01  2.13734739E-05  5.50696116E-02  4.54014242E-01
  6.84232977E-02 -1.63854341E-01  2.08714525E-03  1.56976650E-02  4.05305997E-06
 -3.98087779E-01  5.63419183E-02  7.18765010E-03  2.16739852E-05  7.96925394E-01
  9.50186632E-01 -1.05657665E-01  4.68726077E-05  3.69432969E-03 -1.52943725E-01
  3.18494390E-03 -1.41318224E-01  3.19315635E-03 -1.41287193E-01 -2.88905317E-02
  7.13796319E-02  9.19017124E-02 -6.01372164E-02 -4.61681265E-06  2.02020545E-01
  1.09536054E-01 -7.67813486E-02 -4.13134448E-06  2.50849808E-01 -3.47220813E-02
  4.44864300E-02 -1.35470391E-05 -3.06655639E-02 -1.12233526E-01  5.63690370E-03
 -4.19084138E-02 -6.55284743E-02 -1.64649668E-01 -1.01568845E-04  8.34847559E-02
 -1.85960514E-01 -5.25410495E-02 -4.20814151E-05  7.55941519E-01 -2.60241119E-01
  1.36647150E+00  8.02302380E-04 -8.54236031E-03 -2.53618565E-01  1.27414283E-02
  1.19158459E-01  1.27466995E-02  1.19198259E-01  1.32544859E-02 -4.59924709E-02
 -1.37661761E-02 -3.18643137E-02 -2.24312248E-05 -2.75482692E-02 -6.50374466E-02
  4.35937674E-03  1.20871877E-05 -4.98846866E-01 -2.69711360E-01 -4.89951443E-01
 -2.11850300E-04 -9.88880295E-04 -2.38369458E-01 -4.67180487E-06  2.63353061E-05
  4.13263273E-05  1.06312036E-04 -1.89693126E-01 -3.37208147E-05  1.02579955E-04
  1.02155172E-04 -1.62241837E-01 -4.09026804E-04  8.21707747E-05 -7.73348832E-04
  1.37607826E+00 -6.97992240E-06 -6.05825126E-05 -1.18057308E-02 -1.73368573E-01
  1.18020013E-02  1.73444844E-01 -6.80119058E-06  2.34736408E-05  9.42073589E-06
  1.37099532E-05 -2.98887651E-02  1.36601665E-05  3.29327793E-05 -1.27926818E-05
  3.78585152E-02  2.27809157E-04  1.54718881E-04  2.81327664E-04 -3.70014436E-01
 -1.31503788E-06  1.41683761E-04 -5.73964462E-02  1.11987118E-01 -1.38953521E-01
 -1.87160465E-02 -6.68466223E-05  6.20210560E-01 -9.23873300E-02  7.32451445E-02
 -2.92253233E-04 -1.06597286E+00  1.27649756E+00  2.92178409E-01 -9.17985293E-05
 -4.57516220E-02 -1.77041425E-01 -2.10045734E-02 -1.86610863E-01 -2.10652779E-02
 -1.87270967E-01  6.32456311E-02 -9.97985607E-02  3.02021141E-02  2.37738033E-01
  2.37058761E-05 -8.40582223E-01  1.07577667E-01  3.35476840E-01  4.59721970E-05
  1.84886067E+00 -6.02809554E-01 -7.00594904E-01  3.68809564E-05  1.28250427E-01
  2.82556155E-01  1.99989158E-02  2.77996440E-02 -2.83785830E-01 -1.41412818E-01
 -1.74485977E-04 -8.92213115E-01 -7.48395956E-01 -6.69746435E-01 -6.83843584E-04
 -1.26810528E+00  5.85670803E-01 -2.29768302E-01 -2.13369892E-04  1.32727568E-01
  1.29439922E+00  2.08103509E-03  2.11804193E-03  2.04695571E-03  1.53930296E-03
  4.10140437E-02 -3.53590616E-02 -2.57296518E-01  1.20042684E-01  4.97111502E-05
 -7.41204716E-01 -4.40613301E-01  2.06100162E-01  9.35200751E-05  1.29386673E+00
  1.01407618E+00  7.67717522E-02  8.48636241E-05  3.09586669E-02  3.19036754E-01
  3.75162394E-02  8.19199148E-04 -1.22003679E-01  3.22944475E-01 -7.06630016E-05
 -9.92849695E-01 -2.68714602E-01  1.32998883E+00 -2.15780473E-04 -1.02689424E+00
  3.32828249E-01  5.45165207E-01 -2.19046545E-04 -1.06905974E-01 -1.29016117E+00
  1.10365276E-01  1.30533643E+00  1.10194488E-01  1.30295912E+00  2.49938631E-02
 -3.15803170E-02 -6.24012186E-02  7.05677085E-03 -2.46288360E-06 -3.94514209E-01
 -1.73452894E-01 -7.13878526E-02 -1.19145400E-06  1.27023560E+00  5.12588830E-01
 -5.48331444E-01  1.85514314E-04  6.62846441E-02 -1.41102262E-01 -3.65809250E-05
  1.06525727E-04 -4.24944406E-04 -1.76933688E-05  3.87667928E-01  3.77424916E-05
 -1.15482319E-03  1.00447014E-04  1.44578410E+00 -1.04772390E-03  8.54507379E-04
 -2.41828716E-04  5.72708319E-01 -1.28968505E-05 -5.94519100E-04 -1.26537607E-01
 -1.73757603E+00  1.26673657E-01  1.73931319E+00  5.25744867E-05 -8.00178400E-05
 -3.38220845E-04 -7.80891220E-05 -1.25471001E-01 -6.92691498E-04 -6.79510500E-04
 -2.88415183E-04 -2.30312416E-01  2.28614371E-03 -5.33970064E-04 -5.87054293E-04
 -1.39765148E-01 -9.65435595E-05 -1.74041108E-03 -7.60832591E-02  1.01898507E-01
 -2.96478275E-01  5.62180163E-02 -2.83282084E-04  1.14829974E+00 -9.61317875E-01
  1.41334161E-01 -9.86603908E-04  2.56139794E-01  3.34724068E-01 -4.89304665E-01
 -3.82873606E-04  1.67141927E-02 -1.06491675E-01  3.80182190E-03  1.54906815E-01
  3.62129439E-03  1.52349352E-01  4.41897511E-02 -7.92695334E-02 -2.38498955E-01
 -1.95918697E-01  9.40646591E-05 -4.74557764E-01 -4.63350293E-01 -3.57822632E-01
  1.69160628E-04 -5.13888864E-01 -9.68774413E-01  1.02271805E+00  5.88746263E-05
 -5.58003336E-02 -3.01230612E-01 -3.31330997E-06 -5.51159363E-06  2.76290787E-05
 -1.79338361E-05 -4.12800338E-02  1.37562397E-04  5.83481608E-05 -9.68248276E-05
 -4.04574744E-01  1.49286474E-04 -5.95754713E-05 -9.79401764E-05 -8.30862828E-01
  1.92515463E-05  1.59047329E-04  2.08653774E-02  2.62758547E-01 -2.08995730E-02
 -2.63044151E-01  1.84091806E-06 -3.43795751E-06  3.61703317E-05  2.04373554E-06
 -2.43887286E-01 -2.32243120E-05  8.73316424E-05  3.80575963E-05 -4.44843784E-01
 -5.38108441E-04 -1.64394206E-06  4.37926061E-04  1.73324213E+00  2.32853171E-05
  5.31911608E-04 -1.22771484E-03 -1.29136930E-02  1.14819954E-01  1.72918193E-02
  2.92255668E-04  1.17307718E-01  3.98699485E-01 -2.29115398E-01  9.60044444E-04
 -7.79814066E-02  5.46646722E-02 -4.48747897E-01  5.82148456E-04 -6.66469262E-02
 -5.60752037E-01 -6.45650489E-03 -1.81454124E-01 -6.33704029E-03 -1.79270034E-01
  4.21913047E-02 -7.24317762E-02  1.61817894E-01  7.04270640E-02 -3.18437296E-05
 -6.34373479E-01  3.76841116E-01  2.14785504E-01 -4.45208760E-05 -9.42794488E-01
  9.44012932E-01  2.09202009E+00 -4.02160381E-04  1.98455678E-01  2.79632863E+00
 -1.41465963E-01  1.96930469E-01  1.05929070E-02  5.02703203E-02  3.97154502E-05
  2.64755717E+00 -8.61693732E-02  2.89139758E-01  1.65047214E-04  2.19909950E+00
 -3.01769600E-01  2.07718799E-01  4.69452402E-05 -7.24451513E-02 -1.86635862E+00
 -3.81824309E-02 -1.36908068E+00 -3.81906521E-02 -1.36907505E+00  5.60291061E-03
 -3.06205049E-03 -2.46017675E-01  5.54944443E-02 -1.02390944E-05 -1.10919911E-01
 -5.70705173E-01  1.37602996E-01 -2.54526405E-05 -1.92795368E+00  5.36594222E-01
 -1.72225648E-01  3.85607786E-05  1.43252576E-02  2.21682729E-01  1.37279491E-02
  4.72171780E-03  2.08447792E-01 -2.01800812E-02 -1.46621480E-04 -6.84992283E-01
  1.06918678E+00  4.78960193E-03 -2.97700352E-04 -1.71629325E+00  1.08478335E+00
 -7.37930287E-02 -2.48355923E-04 -6.37090969E-03 -7.03833854E-01 -5.90793478E-02
 -8.65240770E-01 -5.91097838E-02 -8.66104988E-01  3.03799207E-02 -5.34229346E-02
  3.31433469E-02 -1.15890311E-01  1.91280072E-05 -5.24960390E-01  8.97537917E-02
 -4.64248253E-01  9.82698367E-06  6.28573367E+00  1.22855161E+00 -9.51941640E-01
  1.49635614E-04 -1.06621581E-01 -2.24108229E+00 -4.80300557E-03  7.12452980E-02
 -4.40259454E-01 -9.13355811E-01 -5.36381481E-04 -2.42837581E-01  9.19920011E-01
  1.84985541E+00  1.04565819E-03 -2.02604561E-01 -1.25898790E-01 -3.65924749E-01
 -2.27139393E-04 -3.05842606E-01 -5.99039753E-01  7.70648916E-02  8.02118078E-02
  7.70104930E-02  8.01344223E-02  1.02779764E-02 -8.31024368E-02 -7.91222454E-02
 -8.75230861E-03 -9.88068473E-06  2.36919609E-01  4.63935600E-02 -2.79388885E-01
 -1.29135548E-04  7.57339817E-01  3.54974758E-01 -2.66338878E-01 -5.69682606E-05
  1.53445609E-02 -2.70584454E-01 -1.33979378E-02  3.77819207E-02 -9.14984049E-01
  4.14766000E-01  1.83064716E-04 -3.90927483E-01  2.08549502E+00 -8.67316455E-01
 -3.92159879E-04 -4.58692782E-01 -3.12827284E-01  1.60126578E-01  6.42426932E-05
 -4.22025969E-02 -1.54335804E-01 -2.20427500E-01 -3.99951004E-01 -2.20417813E-01
 -3.99974456E-01  1.70524263E-02 -1.85868615E-01 -2.76961340E-01  2.73018983E-02
  9.00872183E-06  7.07922722E-01  3.66916076E-01  2.27890271E-03  4.13558663E-05
  1.23233969E+00  7.87376126E-01 -3.62064052E-02  4.51402758E-05 -5.26478799E-02
 -4.69001629E-02 -4.49803643E-06  1.01181709E-05  4.43900709E-05  5.63510026E-04
 -9.89945757E-01  1.20504112E-04 -1.81029208E-04 -1.22582047E-03  2.13669199E+00
  2.10473603E-04 -9.41950790E-05  1.37780025E-04 -3.45014683E-01 -4.00975541E-05
 -1.40102329E-05 -2.58306391E-01 -5.25153250E-01  2.58346422E-01  5.25229400E-01
  4.31081846E-06 -2.19982827E-05  1.52781230E-05  8.28281027E-05 -4.45820050E-02
 -4.67074127E-06  4.30737417E-05  1.82743966E-04 -2.34613310E-01 -7.54870968E-04
 -1.99086463E-05  4.20415708E-04 -1.97571230E-01  9.04386623E-05  4.92587153E-04
 -3.86791818E-05  2.21159194E-04  2.40775897E-04 -2.93606443E-03  5.53703461E-01
 -5.05990805E-04 -3.70215798E-04  4.23093068E-03 -7.91797168E-01  1.83210873E-04
 -4.99634656E-04  1.83827713E-03 -3.85905672E-01  4.46632097E-03 -7.52290179E-03
 -8.99757482E-01  1.53866351E+00  8.93738407E-01 -1.52829648E+00 -1.21690559E-05
 -4.13124426E-04  3.88487295E-04  2.13758725E-03 -3.34354945E-01  1.02265242E-03
 -5.57742331E-04 -3.06128987E-03  4.49282126E-01 -2.18108439E-03 -2.04207767E-04
  1.30419930E-03 -9.97817231E-02 -4.39542895E-04  5.13025951E-04  7.05675510E-03