Title Card Required                                                     
Freq      RB3LYP                                                      6-31G               
Number of atoms                            I                6
Info1-9                                    I   N=           9
          25          25        1002           0           0         100
           6          18        -502
Full Title                                 C   N=           2
Title Card Required     
Route                                      C   N=           6
#N Geom=AllCheck Guess=TCheck SCRF=Check GenChk RB3LYP/6-31G
 Freq       
Charge                                     I                0
Multiplicity                               I                1
Number of electrons                        I               18
Number of alpha electrons                  I                9
Number of beta electrons                   I                9
Number of basis functions                  I               26
Number of independent functions            I               26
Number of point charges in /Mol/           I                0
Number of translation vectors              I                0
Atomic numbers                             I   N=           6
           6           1           1           1           8           1
Nuclear charges                            R   N=           6
  6.00000000E+00  1.00000000E+00  1.00000000E+00  1.00000000E+00  8.00000000E+00
  1.00000000E+00
Current cartesian coordinates              R   N=          18
  1.77200125E+00 -2.02345479E-02  7.11820393E-07  2.19964520E+00  1.98141195E+00
 -2.16043252E-04  2.20026116E+00 -1.01360205E+00  1.74326785E+00  2.20028651E+00
 -1.01398344E+00 -1.74304441E+00 -1.87094201E+00  2.21440400E-01 -1.97722886E-06
 -2.26466432E+00 -1.60394238E+00  4.14693694E-06
Number of symbols in /Mol/                 I                0
Redundant internal dimensions              I   N=           4
          15           5           7           3
Redundant internal coordinate indices      I   N=          60
           1           2           0           0           1           3
           0           0           1           4           0           0
           1           5           0           0           5           6
           0           0           2           1           3           0
           2           1           4           0           2           1
           5           0           3           1           4           0
           3           1           5           0           4           1
           5           0           1           5           6           0
           2           1           5           6           3           1
           5           6           4           1           5           6
Redundant internal coordinates             R   N=          15
  2.04681902E+00  2.05162518E+00  2.05162653E+00  3.65095089E+00  1.86736165E+00
  2.01526387E+00  2.01526274E+00  1.71503453E+00  2.03062813E+00  1.81350757E+00
  1.81353150E+00  1.71699128E+00  3.14148896E+00 -1.06617071E+00  1.06595730E+00
ZRed-IntVec                                I   N=          15
           0           0           0          -1           0           0
           0           0           0           0           0           0
           0           0           0
ZRed-FPVec                                 R   N=          15
  0.00000000E+00  0.00000000E+00  0.00000000E+00  0.00000000E+00  0.00000000E+00
  0.00000000E+00  0.00000000E+00  0.00000000E+00  0.00000000E+00  0.00000000E+00
  0.00000000E+00  0.00000000E+00  0.00000000E+00  0.00000000E+00  0.00000000E+00
ZRed-Constraint1                           R   N=          15
  2.04681902E+00  2.05162518E+00  2.05162653E+00  3.65095089E+00  1.86736165E+00
  2.01526387E+00  2.01526274E+00  1.71503453E+00  2.03062813E+00  1.81350757E+00
  1.81353150E+00  1.71699128E+00  3.14148896E+00 -1.06617071E+00  1.06595730E+00
ZRed-Constraint2                           R   N=          15
  2.06425549E+00  2.07904869E+00  2.07904758E+00  3.65095089E+00  1.83344608E+00
  1.89647842E+00  1.89648031E+00  1.84865478E+00  1.90270141E+00  1.95853183E+00
  1.95858999E+00  1.94063364E+00  3.14066530E+00 -1.07574920E+00  1.07386048E+00
Force Field                                I                0
Atom Types                                 C   N=           6
                                                            
            
Int Atom Types                             I   N=           6
           0           0           0           0           0           0
MM charges                                 R   N=           6
  0.00000000E+00  0.00000000E+00  0.00000000E+00  0.00000000E+00  0.00000000E+00
  0.00000000E+00
Integer atomic weights                     I   N=           6
          12           1           1           1          16           1
Real atomic weights                        R   N=           6
  1.20000000E+01  1.00782504E+00  1.00782504E+00  1.00782504E+00  1.59949146E+01
  1.00782504E+00
Atom fragment info                         I   N=           6
           0           0           0           0           0           0
Atom residue num                           I   N=           6
           0           0           0           0           0           0
Nuclear spins                              I   N=           6
           0           1           1           1           0           1
Nuclear ZEff                               R   N=           6
 -3.60000000E+00 -1.00000000E+00 -1.00000000E+00 -1.00000000E+00 -5.60000000E+00
 -1.00000000E+00
Nuclear ZNuc                               R   N=           6
  6.00000000E+00  1.00000000E+00  1.00000000E+00  1.00000000E+00  8.00000000E+00
  1.00000000E+00
Nuclear QMom                               R   N=           6
  0.00000000E+00  0.00000000E+00  0.00000000E+00  0.00000000E+00  0.00000000E+00
  0.00000000E+00
Nuclear GFac                               R   N=           6
  0.00000000E+00  2.79284600E+00  2.79284600E+00  2.79284600E+00  0.00000000E+00
  2.79284600E+00
MicOpt                                     I   N=           6
          -1          -1          -1          -1          -1          -1
Number of residues                         I                0
Number of secondary structures             I                0
Number of contracted shells                I               14
Number of primitive shells                 I               36
Pure/Cartesian d shells                    I                1
Pure/Cartesian f shells                    I                0
Highest angular momentum                   I                1
Largest degree of contraction              I                6
Shell types                                I   N=          14
           0          -1          -1           0           0           0
           0           0           0           0          -1          -1
           0           0
Number of primitives per shell             I   N=          14
           6           3           1           3           1           3
           1           3           1           6           3           1
           3           1
Shell to atom map                          I   N=          14
           1           1           1           2           2           3
           3           4           4           5           5           5
           6           6
Primitive exponents                        R   N=          36
  3.04752488E+03  4.57369518E+02  1.03948685E+02  2.92101553E+01  9.28666296E+00
  3.16392696E+00  7.86827235E+00  1.88128854E+00  5.44249258E-01  1.68714478E-01
  1.87311370E+01  2.82539436E+00  6.40121692E-01  1.61277759E-01  1.87311370E+01
  2.82539436E+00  6.40121692E-01  1.61277759E-01  1.87311370E+01  2.82539436E+00
  6.40121692E-01  1.61277759E-01  5.48467166E+03  8.25234946E+02  1.88046958E+02
  5.29645000E+01  1.68975704E+01  5.79963534E+00  1.55396162E+01  3.59993359E+00
  1.01376175E+00  2.70005823E-01  1.87311370E+01  2.82539436E+00  6.40121692E-01
  1.61277759E-01
Contraction coefficients                   R   N=          36
  1.83473713E-03  1.40373228E-02  6.88426223E-02  2.32184443E-01  4.67941348E-01
  3.62311985E-01 -1.19332420E-01 -1.60854152E-01  1.14345644E+00  1.00000000E+00
  3.34946043E-02  2.34726953E-01  8.13757326E-01  1.00000000E+00  3.34946043E-02
  2.34726953E-01  8.13757326E-01  1.00000000E+00  3.34946043E-02  2.34726953E-01
  8.13757326E-01  1.00000000E+00  1.83107443E-03  1.39501722E-02  6.84450781E-02
  2.32714336E-01  4.70192898E-01  3.58520853E-01 -1.10777550E-01 -1.48026263E-01
  1.13076702E+00  1.00000000E+00  3.34946043E-02  2.34726953E-01  8.13757326E-01
  1.00000000E+00
P(S=P) Contraction coefficients            R   N=          36
  0.00000000E+00  0.00000000E+00  0.00000000E+00  0.00000000E+00  0.00000000E+00
  0.00000000E+00  6.89990666E-02  3.16423961E-01  7.44308291E-01  1.00000000E+00
  0.00000000E+00  0.00000000E+00  0.00000000E+00  0.00000000E+00  0.00000000E+00
  0.00000000E+00  0.00000000E+00  0.00000000E+00  0.00000000E+00  0.00000000E+00
  0.00000000E+00  0.00000000E+00  0.00000000E+00  0.00000000E+00  0.00000000E+00
  0.00000000E+00  0.00000000E+00  0.00000000E+00  7.08742682E-02  3.39752839E-01
  7.27158577E-01  1.00000000E+00  0.00000000E+00  0.00000000E+00  0.00000000E+00
  0.00000000E+00
Coordinates of each shell                  R   N=          42
  1.77200125E+00 -2.02345479E-02  7.11820393E-07  1.77200125E+00 -2.02345479E-02
  7.11820393E-07  1.77200125E+00 -2.02345479E-02  7.11820393E-07  2.19964520E+00
  1.98141195E+00 -2.16043252E-04  2.19964520E+00  1.98141195E+00 -2.16043252E-04
  2.20026116E+00 -1.01360205E+00  1.74326785E+00  2.20026116E+00 -1.01360205E+00
  1.74326785E+00  2.20028651E+00 -1.01398344E+00 -1.74304441E+00  2.20028651E+00
 -1.01398344E+00 -1.74304441E+00 -1.87094201E+00  2.21440400E-01 -1.97722886E-06
 -1.87094201E+00  2.21440400E-01 -1.97722886E-06 -1.87094201E+00  2.21440400E-01
 -1.97722886E-06 -2.26466432E+00 -1.60394238E+00  4.14693694E-06 -2.26466432E+00
 -1.60394238E+00  4.14693694E-06
Constraint Structure                       R   N=          18
  1.77200125E+00 -2.02345479E-02  7.11820393E-07  2.19964520E+00  1.98141195E+00
 -2.16043252E-04  2.20026116E+00 -1.01360205E+00  1.74326785E+00  2.20028651E+00
 -1.01398344E+00 -1.74304441E+00 -1.87094201E+00  2.21440400E-01 -1.97722886E-06
 -2.26466432E+00 -1.60394238E+00  4.14693694E-06
Num ILSW                                   I              100
ILSW                                       I   N=         100
           0           1           0           0           2           0
           0           0           0           0         402          -1
           0           0           0           0           2           0
           0           0           1           0           1           0
           1           0           0           0           0           0
           0           0      100000           0          -1           0
           0           0           0           0           0           0
           0           0           0           1           0           0
           0           0           1           0           0           0
           0           0           4          41           0           0
           0           0           5           0           0           0
           0           0           0           0           0           0
           0           0           0           0           0           0
           0           0           0           0           0           0
           0           0           0           0           0           0
           0           0           0           0           0           0
           0           0           0           0
Num RLSW                                   I               41
RLSW                                       R   N=          41
  8.00000000E-01  7.20000000E-01  1.00000000E+00  8.10000000E-01  2.00000000E-01
  0.00000000E+00  0.00000000E+00  1.00000000E+00  0.00000000E+00  0.00000000E+00
  0.00000000E+00  0.00000000E+00  1.00000000E+00  0.00000000E+00  0.00000000E+00
  0.00000000E+00  0.00000000E+00  1.00000000E+00  0.00000000E+00  0.00000000E+00
  0.00000000E+00  0.00000000E+00  1.00000000E+00  0.00000000E+00  0.00000000E+00
  0.00000000E+00  0.00000000E+00  1.00000000E+00  0.00000000E+00  0.00000000E+00
  0.00000000E+00  0.00000000E+00  1.00000000E+00  0.00000000E+00  0.00000000E+00
  0.00000000E+00  0.00000000E+00  0.00000000E+00  1.00000000E+00  1.00000000E+00
  0.00000000E+00
MxBond                                     I                4
NBond                                      I   N=           6
           4           1           1           1           2           1
IBond                                      I   N=          24
           2           3           4           5           1           0
           0           0           1           0           0           0
           1           0           0           0           1           6
           0           0           5           0           0           0
RBond                                      R   N=          24
  1.00000000E+00  1.00000000E+00  1.00000000E+00  1.00000000E+00  1.00000000E+00
  0.00000000E+00  0.00000000E+00  0.00000000E+00  1.00000000E+00  0.00000000E+00
  0.00000000E+00  0.00000000E+00  1.00000000E+00  0.00000000E+00  0.00000000E+00
  0.00000000E+00  1.00000000E+00  1.00000000E+00  0.00000000E+00  0.00000000E+00
  1.00000000E+00  0.00000000E+00  0.00000000E+00  0.00000000E+00
Virial Ratio                               R      2.008276382804107E+00
SCF Energy                                 R     -1.156287634522680E+02
Total Energy                               R     -1.156287634522680E+02
RMS Force                                  R      2.516522991641702E-02
RMS Density                                R      1.195445594023514E-09
External E-field                           R   N=          35
  0.00000000E+00  0.00000000E+00  0.00000000E+00  0.00000000E+00  0.00000000E+00
  0.00000000E+00  0.00000000E+00  0.00000000E+00  0.00000000E+00  0.00000000E+00
  0.00000000E+00  0.00000000E+00  0.00000000E+00  0.00000000E+00  0.00000000E+00
  0.00000000E+00  0.00000000E+00  0.00000000E+00  0.00000000E+00  0.00000000E+00
  0.00000000E+00  0.00000000E+00  0.00000000E+00  0.00000000E+00  0.00000000E+00
  0.00000000E+00  0.00000000E+00  0.00000000E+00  0.00000000E+00  0.00000000E+00
  0.00000000E+00  0.00000000E+00  0.00000000E+00  0.00000000E+00  0.00000000E+00
IOpCl                                      I                0
IROHF                                      I                0
Alpha Orbital Energies                     R   N=          26
 -1.91299182E+01 -1.02475729E+01 -9.28368581E-01 -7.02604807E-01 -4.49207050E-01
 -4.45649591E-01 -3.90275539E-01 -3.08650780E-01 -2.51779295E-01 -3.17029814E-02
  8.65399599E-02  1.34041559E-01  1.57767012E-01  1.60393441E-01  5.37758606E-01
  5.47444081E-01  5.53030663E-01  8.12269384E-01  8.67404774E-01  8.98103333E-01
  9.09289114E-01  9.86456520E-01  1.02868189E+00  1.04223458E+00  1.14633125E+00
  1.57491116E+00
Alpha MO coefficients                      R   N=         676
 -1.77987416E-04 -1.24598742E-03 -1.01720110E-04 -7.27095756E-05  1.43970410E-08
  4.20077978E-03 -1.49823844E-03  4.06171507E-04 -7.36376851E-08 -3.79529711E-04
 -7.89973780E-04 -3.12513636E-04 -5.11052637E-04 -3.12485506E-04 -5.11164617E-04
  9.95096759E-01  2.75285245E-02  6.63131241E-04 -1.75615283E-03  5.09338796E-09
 -1.23110986E-02 -1.36992910E-03  2.38594958E-03 -2.82709244E-09  2.72482667E-04
  3.17241248E-03  9.95317779E-01  3.55966162E-02 -1.27058321E-04 -8.17252613E-05
 -1.24555334E-09 -2.69937081E-02  2.15003129E-04 -1.09338041E-04 -3.01130247E-08
 -7.66563631E-04  5.80581592E-03 -8.18790211E-04  5.73838842E-03 -8.18801231E-04
  5.73833410E-03 -5.90856249E-05 -5.21687449E-04  7.34048292E-05 -7.04144879E-05
  1.89859665E-09  2.43306882E-03  1.74604312E-03  7.84744874E-05 -4.25794267E-09
 -2.95829077E-04  8.66281239E-04 -3.18656729E-02  6.09277533E-02 -2.97091277E-02
 -4.63569543E-04 -5.83548660E-08  4.67235848E-02 -8.36153550E-03 -7.23107750E-03
  7.29830855E-07  1.50970951E-02  7.40124565E-03  1.50918791E-02  1.48520444E-03
  1.50917032E-02  1.48593042E-03 -2.11836474E-01  4.72643235E-01  6.59477467E-03
 -1.33922436E-01  5.05876871E-07  4.74133348E-01  1.29381697E-02 -6.01725799E-02
  2.08765929E-07  1.70882653E-01  8.23632155E-03 -1.98011537E-01  3.96136193E-01
  6.21680394E-02 -4.77326366E-03 -9.43991743E-08  3.72199322E-01  2.24266983E-02
 -9.79707884E-03  4.44710091E-07  1.48635002E-01  4.20649601E-02  1.52920591E-01
  4.04575602E-02  1.52921806E-01  4.04584759E-02  3.55949317E-02 -8.29757166E-02
  6.17486670E-02  4.08186581E-02 -1.02262136E-07 -9.55827400E-02  2.54576365E-02
  1.57516264E-02 -3.97975744E-08 -4.96301291E-02 -1.26481355E-02  1.36581825E-04
 -3.40665631E-03 -3.07036368E-02  4.27011355E-01  8.60130645E-05  1.50884878E-02
 -1.94957921E-02  1.82383882E-01  2.86766316E-05  2.50826315E-01  1.74534115E-01
 -1.36013320E-01 -1.00986189E-01 -1.36156545E-01 -1.01100122E-01 -3.12098507E-02
  6.72646220E-02  6.59247791E-02  1.86087249E-01  1.12316341E-05  1.22908660E-01
  2.92385980E-02  9.50520293E-02  7.54474548E-06 -1.08493862E-01 -7.74290777E-02
 -3.18490929E-07  1.16278958E-06  2.60309401E-06 -7.98293441E-05  4.64110317E-01
 -1.63179694E-06  2.83460997E-06 -3.72241793E-05  1.70046743E-01 -7.74688431E-05
 -5.41779545E-05  2.49920820E-01  1.97376832E-01 -2.49839437E-01 -1.97318512E-01
  6.28137695E-06 -1.36421902E-05 -1.13103173E-05 -3.62908946E-05  6.62434869E-02
 -2.44334662E-05 -4.83648630E-06 -1.85873800E-05  4.28659682E-02  2.06726615E-05
  1.45657961E-05  4.51884889E-03 -2.49158201E-02 -1.44006672E-01 -1.97125579E-01
  4.90439075E-07  3.49451271E-02 -1.14651248E-01 -6.05333404E-02  8.40143784E-07
 -1.59715897E-01 -1.27429430E-01  3.46006156E-02  3.42834856E-02  3.46247031E-02
  3.43050634E-02 -6.34691630E-02  1.34912478E-01  2.16161740E-01  4.14349362E-01
 -1.05140201E-06  2.67987400E-01  1.16241287E-01  2.23497052E-01 -6.45152061E-07
 -2.62373286E-01 -1.95886484E-01 -1.03239000E-02  1.53762149E-02 -3.02960311E-01
  4.53248418E-02 -3.34458539E-06  7.12098737E-02 -2.15583615E-01 -3.10379561E-02
 -1.15013884E-06 -5.58402356E-03  9.66610372E-03 -5.71126259E-02 -6.64380370E-02
 -5.71180226E-02 -6.64443270E-02  5.08275956E-02 -1.15254142E-01  4.41552822E-01
 -2.52717755E-01 -1.00617099E-06 -2.12709345E-01  3.11244864E-01 -1.72707249E-01
 -7.66829132E-07  6.83496823E-02  5.11696711E-02  1.48154720E-07 -9.23683424E-08
 -2.43752628E-07  1.11006596E-06 -7.29916140E-02 -1.47541116E-06 -7.51324658E-07
  1.19496997E-06  3.09395079E-02  6.87592563E-06  8.54531535E-06 -5.67237147E-02
 -6.66313251E-02  5.67166764E-02  6.66240952E-02  1.13128705E-07 -2.46066521E-07
  1.54308923E-06  1.56912601E-06  6.49062779E-01 -5.47769591E-07  1.15403973E-06
  1.17313050E-06  4.92111933E-01  2.79069374E-07  3.30577682E-07  5.55273108E-02
 -1.38000161E-01  4.84239682E-01 -2.71061732E-03  2.76238917E-06 -1.97631224E-01
  5.73908011E-01 -8.31294304E-04  2.54085659E-06 -2.35531160E-02 -1.50758440E-02
 -6.10267576E-03  1.76571875E-02 -6.09960166E-03  1.76610802E-02 -5.03963217E-02
  1.04645199E-01  4.17760033E-01 -9.81385593E-02 -2.27545140E-07  3.81515958E-01
  4.29242422E-01 -1.26550346E-01 -2.22568429E-08 -2.33837490E-02 -2.25321267E-01
 -1.27916644E-01  1.93624063E-01  1.53696836E-02 -3.45582352E-02 -9.94949102E-06
  1.78622854E+00  1.36903863E-01 -3.14118678E-02 -3.40207854E-05 -4.17358812E-02
 -7.94361413E-01 -3.09665875E-02 -8.86312445E-01 -3.09699964E-02 -8.86398120E-01
 -3.20064052E-02  6.02441257E-02 -1.20549177E-01 -1.95991671E-01  2.30716796E-06
  4.09924790E-01 -1.82380397E-01 -3.25989203E-01  4.16740242E-06 -7.27235882E-02
 -8.58547527E-01 -7.66802183E-02  9.18223925E-02  1.94070741E-01 -4.82709927E-02
  3.56515676E-05  1.33461876E+00  3.32411223E-01 -1.94321034E-01  1.22965871E-04
 -2.91709962E-02 -4.49960487E-01 -6.92045441E-02 -8.41434113E-01 -6.91920136E-02
 -8.41215415E-01  4.25021825E-02 -6.24374722E-02  1.30669533E-01  2.86839990E-01
 -3.57104473E-06 -6.13662615E-01  1.52669933E-01  4.58560005E-01 -8.20112937E-06
  1.16233916E-01  1.18158355E+00 -3.15694012E-06  8.99851858E-06 -1.36222847E-05
  1.56786643E-04  4.38318176E-01  2.87091258E-05 -2.18523778E-05  5.11353792E-04
  1.35665362E+00 -2.84154772E-05 -4.90827066E-04 -8.31087428E-02 -1.57796895E+00
  8.31444631E-02  1.57842436E+00 -1.57290286E-06  4.11685758E-06 -1.00014117E-05
 -2.47302202E-05 -3.17867482E-02  2.16404164E-05 -2.06241857E-05 -4.85408632E-05
 -7.72309125E-02 -4.72256293E-06 -6.70314688E-05  1.78381401E-02 -3.26215810E-02
 -1.89224620E-02 -4.15185587E-01  1.57188596E-04 -2.71905381E-01 -4.09380756E-02
 -1.36553066E+00  4.98151770E-04  1.17352398E-01  1.94845495E+00 -5.05960128E-02
 -7.58476364E-01 -5.05521399E-02 -7.57663894E-01 -9.20228724E-03  1.43864572E-02
 -1.67246372E-02 -2.14211097E-02 -1.02474341E-05  1.23778290E-01  3.08089327E-03
 -6.70875904E-03 -2.54177307E-05 -1.13101088E-02 -2.00225958E-01 -1.76548816E-02
 -1.14419903E-01 -7.56734858E-01  4.50989080E-01 -6.28841087E-05  4.13168531E-01
  1.15816682E+00 -1.01967596E+00  1.36175172E-04  5.82547567E-02  2.08793345E-01
 -3.31005480E-01 -2.55241205E-01 -3.30996746E-01 -2.55232629E-01 -1.84428816E-02
 -1.73456307E-02 -1.37581358E-01  9.48990139E-02 -1.36416482E-05  3.69366090E-01
  3.48659234E-01 -3.08425199E-02 -2.53468287E-06 -9.56333220E-02  7.83184975E-02
 -1.37503575E-02 -4.61612107E-02 -5.64995235E-01 -6.45569953E-01  7.47406604E-05
  2.64894675E-01  8.24296572E-01  1.47091441E+00 -1.80818487E-04 -4.95522945E-01
 -5.42257811E-01  5.57587993E-02  1.55950848E-01  5.57476916E-02  1.55931703E-01
  1.21673832E-02 -1.18094959E-01 -3.01422301E-02 -1.57412541E-03  1.85807221E-05
  1.48749536E-01  1.99341046E-01  1.65037969E-03  2.56918506E-06  1.32068972E-01
  1.97833307E-01  1.18789248E-07  7.21643598E-06  7.11577418E-07 -9.43827608E-05
 -7.63856585E-01 -1.21169389E-05 -1.75733724E-05  2.24643083E-04  1.79988689E+00
 -4.17126326E-06 -6.30508958E-06 -3.95291456E-01 -5.08629109E-01  3.95310955E-01
  5.08639716E-01  2.17282066E-06 -5.96522200E-06  5.15422023E-06 -1.67509276E-05
 -2.19132418E-01 -1.53361948E-05 -7.45176424E-06  7.86941362E-06 -8.80906667E-03
  2.29262319E-05  3.84165572E-06  6.15756668E-02  3.88897466E-02 -3.94479409E-01
  1.46915613E-01 -1.48030262E-05 -2.34561808E-01  2.77343087E-01 -2.74494342E-01
  1.27929071E-05  4.87571136E-01 -4.90439603E-02  6.24279330E-01 -4.10323375E-01
  6.24267520E-01 -4.10333653E-01 -1.02215530E-02  1.38008919E-01  1.74682782E-01
  3.68968337E-01  3.07994420E-06  1.46531905E-03  4.03040999E-02 -5.79224190E-02
 -3.75298732E-06  6.59440734E-01 -3.85887686E-01 -3.00228271E-02  3.40414773E-01
  3.07174477E-01  3.73702538E-01 -3.78132058E-05 -7.44527874E-01 -3.09592331E-01
 -6.10730139E-01  5.42431555E-05 -6.71351134E-01  1.07291754E+00 -1.57592295E-01
  9.69212151E-02 -1.57597681E-01  9.69207718E-02  3.03520660E-02 -1.76278361E-01
 -3.16018832E-01  2.80567115E-01  1.32340684E-05  1.79858626E-01  3.70652485E-01
  7.93037207E-02 -1.68221534E-05  9.30991272E-01 -7.83357094E-01 -3.04471839E-08
 -3.02223833E-07 -1.66002792E-06  6.07519102E-05  8.26916462E-01 -1.92539810E-06
  6.85468507E-06 -8.43920007E-05 -1.23881641E+00  2.23726908E-05 -4.98560175E-05
 -7.31471143E-01  1.32345155E+00  7.31441878E-01 -1.32339648E+00  1.72585361E-06
 -1.66817058E-05 -3.57741608E-06  1.49710996E-05 -4.07131607E-01  1.84504901E-05
  6.43312992E-06 -2.49271085E-06  4.95265359E-01  2.45025283E-05 -1.96645324E-05
  3.86253621E-03 -3.12630260E-01 -1.17944953E-01  7.11944030E-01 -3.34674449E-05
  7.20852065E-01  1.44482314E-01 -9.62192017E-01  4.74857327E-05 -7.44133948E-01
  1.10126495E+00  4.95510045E-01 -9.34281650E-01  4.95604230E-01 -9.34437508E-01
  1.14916000E-02 -8.77298151E-02  1.51151438E-01 -4.48922814E-01  3.50482318E-05
 -4.88449799E-02 -1.87731331E-01  4.85108124E-01 -3.80107168E-05 -2.28734929E-01
  3.77346377E-01 -2.95581539E-07  1.20860194E-05 -1.76036545E-06  1.29913294E-05
 -1.97026700E-01 -1.81288464E-05  3.17949202E-06 -2.84395724E-05 -1.57730060E-01
 -7.17676845E-05  8.52300883E-05  4.82577269E-01 -3.94875889E-01 -4.82508519E-01
  3.94802403E-01 -6.80455444E-07  4.67846114E-06  7.25419407E-06 -1.11583068E-05
 -8.42380220E-01 -3.15905740E-06 -6.24794369E-06  8.73524076E-06  9.98641729E-01
 -1.32787349E-05  1.26342613E-05 -7.80838869E-03 -1.60037249E+00  4.10773029E-02
 -1.31820956E-01  8.20745571E-06  3.27408334E+00  7.93969978E-03 -3.84839840E-02
 -1.75886810E-05  3.79933305E-01 -1.17172294E+00 -1.33560253E-01 -6.49980443E-01
 -1.33615219E-01 -6.49945063E-01  7.10885116E-02 -5.87915954E-01  3.39832106E-02
 -2.71454775E-01 -1.13554179E-05  3.36030417E-01 -2.75492117E-01  5.45154027E-01
  1.34594926E-05  5.49644411E-01 -4.84558162E-01  2.03203902E-02 -1.26371514E+00
  1.55424527E-01  4.24925265E-02 -1.40460379E-05  2.29860782E+00  5.47622466E-02
  1.92620748E-01  2.86202089E-05 -1.33065275E-01 -5.01494581E-01  2.64068958E-01
 -7.55066684E-01  2.64095537E-01 -7.55038918E-01 -2.43387056E-02  2.85905258E-01
 -5.69986430E-01  3.49619488E-01 -1.32020436E-06 -3.78285402E-01  4.60811736E-01
 -6.26993486E-01  1.41189748E-06 -4.19011328E-01  1.86318166E-01 -4.34668956E-02
 -5.67144095E-01  6.91936011E-02  1.05095245E-01 -2.22416389E-05  1.37535344E+00
 -3.57685195E-01  2.06250825E-02  6.63151257E-05 -4.07135520E-01  1.03800335E-01
 -1.21628957E-01 -2.07321716E-01 -1.21613653E-01 -2.07244468E-01  2.43744790E-02
 -4.82361971E-01  5.96363018E-01  5.96561898E-01  4.72563724E-06  7.82924869E-01
 -1.10539827E+00 -1.15765541E+00 -8.13692168E-06 -2.06058082E-01 -9.51290913E-01
 -8.65528824E-02 -9.90393737E-01  1.37391523E-02 -1.54474957E-02  8.37594780E-06
  2.63171269E+00 -5.66556780E-01  7.40510913E-02 -2.13420325E-05 -2.63645577E-01
 -4.46237311E-01 -2.75721140E-01 -3.54976939E-01 -2.75707909E-01 -3.55010835E-01
 -4.61736508E-02  1.49921579E+00  3.42714967E-01 -9.91375184E-02 -7.50241201E-07
 -2.37257642E+00 -8.61057339E-01  5.65597807E-01  4.85180131E-07  5.11840442E-01
  2.59447865E-01
Total SCF Density                          R   N=         351
  2.06201705E+00 -9.04453442E-02  3.25547155E-01 -1.80338779E-02  4.36935243E-02
  2.36426218E-01 -8.43568523E-04  4.46372731E-03  2.52402839E-03  4.46549100E-01
 -1.81652825E-07  2.97456823E-07 -9.52970646E-07 -1.29977324E-06  4.41452338E-01
 -2.05263789E-01  2.98990235E-01 -1.06311615E-02  1.97117820E-03  7.78738242E-07
  2.95962813E-01 -4.51025337E-03  1.59845657E-02  1.68130357E-01  8.80278901E-03
  7.13353405E-07 -2.34158459E-02  1.21152905E-01  4.26652294E-03 -7.83255338E-03
  2.42527231E-02  1.76911933E-01 -3.20095564E-06 -1.11066549E-02  1.98317883E-02
  7.60799402E-02 -3.42521210E-07  5.56428428E-07 -4.23870536E-07 -3.03064923E-06
  1.53324251E-01  5.14278166E-07  1.10598419E-07 -2.17508587E-06  5.97462973E-02
 -6.26105117E-02  1.25623668E-01  5.15651461E-02  2.75240605E-01 -2.99124107E-05
  1.07703991E-01  3.56659083E-02  1.08045412E-01 -1.16366518E-05  2.21550427E-01
 -6.87641736E-03  4.01022103E-02  2.49159286E-02  1.99762266E-01 -2.17106336E-05
  2.94221274E-02  2.00146656E-02  7.75586721E-02 -8.07506203E-06  1.40872390E-01
  9.73048486E-02 -6.16970799E-02  1.20383012E-01  5.11109000E-02 -1.36490740E-01
  2.40239360E-01  1.05464914E-01  2.86031719E-02 -5.34903657E-02  8.14789818E-02
 -3.27697576E-02 -4.43487842E-02  2.24499828E-01 -3.03964760E-03  2.95811845E-02
  4.15251539E-02 -1.06203520E-01  1.92919402E-01  1.98273345E-02  2.65172669E-02
 -3.76936272E-02  6.29979502E-02 -4.88374831E-02 -4.18023244E-02  1.56057946E-01
  1.21714276E-01 -6.16969296E-02  1.20382378E-01  5.11135318E-02 -1.36543011E-01
 -2.40208841E-01  1.05463692E-01  2.86026136E-02 -5.35077346E-02 -8.14666541E-02
 -3.27698936E-02 -4.43488327E-02 -3.81290686E-02 -5.63102198E-02  2.24500150E-01
 -3.03957992E-03  2.95805599E-02  4.15276977E-02 -1.06246596E-01 -1.92898036E-01
  1.98261550E-02  2.65170649E-02 -3.77077337E-02 -6.29896570E-02 -4.88381802E-02
 -4.18025832E-02 -5.63112002E-02 -5.18257250E-02  1.56059854E-01  1.21717144E-01
 -2.69925659E-03  4.84196512E-03  6.20924957E-03  2.68827165E-03  8.94851721E-08
  1.69260131E-02 -3.98733448E-03 -3.68098437E-03 -2.94395565E-07  7.47974663E-03
  4.54992459E-03  2.16560780E-03 -3.56651185E-03  2.16490590E-03 -3.56817222E-03
  2.08789018E+00  5.30723676E-03 -1.89764791E-02 -1.15582488E-02 -5.84162916E-03
 -1.91183393E-07 -2.22959469E-02  4.42678526E-03  1.01699432E-02  3.06883599E-07
 -1.84799021E-02 -1.31658076E-02 -6.93111111E-03  5.62993894E-03 -6.92942209E-03
  5.63311540E-03 -1.84406414E-01  5.34088225E-01 -3.18737862E-02  5.20869088E-02
 -3.26566104E-01  1.05101595E-02 -2.13695316E-06  1.26566346E-01 -2.39862648E-01
 -3.08373086E-02 -5.58114812E-07 -2.23543399E-02 -1.82499626E-02 -3.43331425E-02
 -5.21537499E-02 -3.43345763E-02 -5.21555360E-02  1.62535244E-02 -3.85638357E-02
  4.99795406E-01  1.24404451E-03 -1.36675914E-02  3.53946882E-02 -2.76090031E-02
  2.01617431E-07  1.64422621E-02  1.07721168E-02  3.45380043E-02 -4.53856428E-07
 -2.80909085E-02 -4.40754061E-02  1.53441858E-02  2.72978337E-02  1.53503455E-02
  2.73054381E-02 -3.37522846E-02  6.16239152E-02 -1.62357157E-02  5.79569188E-01
  1.76504120E-07 -4.01780940E-08  2.08453351E-07  7.80540926E-07 -3.32637063E-02
 -2.03821614E-06 -3.75848053E-07  9.00880381E-07  6.26923449E-02  4.62853749E-06
  8.08303219E-06 -4.05262799E-02 -6.03481806E-02  4.05218639E-02  6.03420920E-02
  9.76915776E-08 -1.72170690E-07  6.36489024E-07  9.02375498E-07  8.51341382E-01
  1.93310932E-02 -3.84809053E-02  4.09887265E-03 -1.94952988E-02  1.91880105E-07
 -3.49353221E-02  1.32924760E-02  2.05982409E-02  2.53968714E-07 -3.56628858E-02
 -3.04829043E-02 -5.52304542E-03  1.55201285E-02 -5.51914873E-03  1.55260203E-02
 -2.95496555E-01  6.01249344E-01 -6.13487035E-02  2.40580736E-01 -8.23601549E-07