 Entering Gaussian System, Link 0=g09
 Input=G-stretched05.com
 Output=G-stretched05.log
 Initial command:
 /nexus/posix0/bmm/home/sucerqdl/sw/g09/l1.exe "/nexus/posix0/bmm/home/sucerqdl/sw/g09/g09_scratch/Gau-2874747.inp" -scrdir="/nexus/posix0/bmm/home/sucerqdl/sw/g09/g09_scratch/"
 Entering Link 1 = /nexus/posix0/bmm/home/sucerqdl/sw/g09/l1.exe PID=   2874749.
  
 Copyright (c) 1988,1990,1992,1993,1995,1998,2003,2009,2013,
            Gaussian, Inc.  All Rights Reserved.
  
 This is part of the Gaussian(R) 09 program.  It is based on
 the Gaussian(R) 03 system (copyright 2003, Gaussian, Inc.),
 the Gaussian(R) 98 system (copyright 1998, Gaussian, Inc.),
 the Gaussian(R) 94 system (copyright 1995, Gaussian, Inc.),
 the Gaussian 92(TM) system (copyright 1992, Gaussian, Inc.),
 the Gaussian 90(TM) system (copyright 1990, Gaussian, Inc.),
 the Gaussian 88(TM) system (copyright 1988, Gaussian, Inc.),
 the Gaussian 86(TM) system (copyright 1986, Carnegie Mellon
 University), and the Gaussian 82(TM) system (copyright 1983,
 Carnegie Mellon University). Gaussian is a federally registered
 trademark of Gaussian, Inc.
  
 This software contains proprietary and confidential information,
 including trade secrets, belonging to Gaussian, Inc.
  
 This software is provided under written license and may be
 used, copied, transmitted, or stored only in accord with that
 written license.
  
 The following legend is applicable only to US Government
 contracts under FAR:
  
                    RESTRICTED RIGHTS LEGEND
  
 Use, reproduction and disclosure by the US Government is
 subject to restrictions as set forth in subparagraphs (a)
 and (c) of the Commercial Computer Software - Restricted
 Rights clause in FAR 52.227-19.
  
 Gaussian, Inc.
 340 Quinnipiac St., Bldg. 40, Wallingford CT 06492
  
  
 ---------------------------------------------------------------
 Warning -- This program may not be used in any manner that
 competes with the business of Gaussian, Inc. or will provide
 assistance to any competitor of Gaussian, Inc.  The licensee
 of this program is prohibited from giving any competitor of
 Gaussian, Inc. access to this program.  By using this program,
 the user acknowledges that Gaussian, Inc. is engaged in the
 business of creating and licensing software in the field of
 computational chemistry and represents and warrants to the
 licensee that it is not a competitor of Gaussian, Inc. and that
 it will not use this program in any manner prohibited above.
 ---------------------------------------------------------------
  

 Cite this work as:
 Gaussian 09, Revision D.01,
 M. J. Frisch, G. W. Trucks, H. B. Schlegel, G. E. Scuseria, 
 M. A. Robb, J. R. Cheeseman, G. Scalmani, V. Barone, B. Mennucci, 
 G. A. Petersson, H. Nakatsuji, M. Caricato, X. Li, H. P. Hratchian, 
 A. F. Izmaylov, J. Bloino, G. Zheng, J. L. Sonnenberg, M. Hada, 
 M. Ehara, K. Toyota, R. Fukuda, J. Hasegawa, M. Ishida, T. Nakajima, 
 Y. Honda, O. Kitao, H. Nakai, T. Vreven, J. A. Montgomery, Jr., 
 J. E. Peralta, F. Ogliaro, M. Bearpark, J. J. Heyd, E. Brothers, 
 K. N. Kudin, V. N. Staroverov, T. Keith, R. Kobayashi, J. Normand, 
 K. Raghavachari, A. Rendell, J. C. Burant, S. S. Iyengar, J. Tomasi, 
 M. Cossi, N. Rega, J. M. Millam, M. Klene, J. E. Knox, J. B. Cross, 
 V. Bakken, C. Adamo, J. Jaramillo, R. Gomperts, R. E. Stratmann, 
 O. Yazyev, A. J. Austin, R. Cammi, C. Pomelli, J. W. Ochterski, 
 R. L. Martin, K. Morokuma, V. G. Zakrzewski, G. A. Voth, 
 P. Salvador, J. J. Dannenberg, S. Dapprich, A. D. Daniels, 
 O. Farkas, J. B. Foresman, J. V. Ortiz, J. Cioslowski, 
 and D. J. Fox, Gaussian, Inc., Wallingford CT, 2013.
 
 ******************************************
 Gaussian 09:  ES64L-G09RevD.01 24-Apr-2013
                 3-Sep-2025 
 ******************************************
 %mem=60GB
 %NProcShared=16
 Will use up to   16 processors via shared memory.
 %chk=G-stretched05
 ----------------------------------
 #P bmk/6-31+g opt(modredun,calcfc)
 ----------------------------------
 1/10=4,14=-1,18=120,19=15,26=3,38=1/1,3;
 2/9=110,12=2,17=6,18=5,40=1/2;
 3/5=1,6=6,7=10,11=2,16=1,25=1,30=1,71=2,74=-34,140=1/1,2,3;
 4//1;
 5/5=2,38=5/2;
 8/6=4,10=90,11=11/1;
 11/6=1,8=1,9=11,15=111,16=1/1,2,10;
 10/6=1,13=1/2;
 6/7=2,8=2,9=2,10=2,28=1/1;
 7/10=1,18=20,25=1/1,2,3,16;
 1/10=4,14=-1,18=20,19=15,26=3/3(2);
 2/9=110/2;
 99//99;
 2/9=110/2;
 3/5=1,6=6,7=10,11=2,16=1,25=1,30=1,71=1,74=-34/1,2,3;
 4/5=5,16=3,69=1/1;
 5/5=2,38=5/2;
 7//1,2,3,16;
 1/14=-1,18=20,19=15,26=3/3(-5);
 2/9=110/2;
 6/7=2,8=2,9=2,10=2,19=2,28=1/1;
 99/9=1/99;
 Leave Link    1 at Wed Sep  3 14:21:06 2025, MaxMem=  8053063680 cpu:         1.2
 (Enter /nexus/posix0/bmm/home/sucerqdl/sw/g09/l101.exe)
 ------------------------------
 Gaussian input prepared by ASE
 ------------------------------
 Symbolic Z-matrix:
 Charge =  0 Multiplicity = 1
 C                     0.        0.        0. 
 H                    -0.03009   1.09484  -0.00009 
 H                    -0.49404  -0.40203  -0.89568 
 H                    -0.49402  -0.40188   0.89576 
 C                     1.54734  -0.61239   0.00003 
 O                     1.61508  -1.85678   0.0001 
 N                     2.78507   0.11238  -0.00001 
 H                     2.81215   1.12433  -0.00007 
 C                     4.14729  -0.61582   0.00002 
 H                     4.16739  -1.27238  -0.88173 
 H                     4.16739  -1.27231   0.88182 
 C                     5.52795   0.25716  -0.00002 
 O                     5.47487   1.4945   -0.00009 
 N                     6.76241  -0.46513   0.00003 
 H                     6.66159  -1.47307   0.00009 
 C                     8.2857    0.        0. 
 H                     8.77728  -0.38402  -0.90463 
 H                     8.28406   1.09351  -0.00007 
 H                     8.77728  -0.3839    0.90468 
 
 The following ModRedundant input section has been read:
 B       1      16 F                                                           
 
 NAtoms=     19 NQM=       19 NQMF=       0 NMMI=      0 NMMIF=      0
                NMic=       0 NMicF=      0.
                    Isotopes and Nuclear Properties:
 (Nuclear quadrupole moments (NQMom) in fm**2, nuclear magnetic moments (NMagM)
  in nuclear magnetons)

  Atom         1           2           3           4           5           6           7           8           9          10
 IAtWgt=          12           1           1           1          12          16          14           1          12           1
 AtmWgt=  12.0000000   1.0078250   1.0078250   1.0078250  12.0000000  15.9949146  14.0030740   1.0078250  12.0000000   1.0078250
 NucSpn=           0           1           1           1           0           0           2           1           0           1
 AtZEff=   0.0000000   0.0000000   0.0000000   0.0000000   0.0000000   0.0000000   0.0000000   0.0000000   0.0000000   0.0000000
 NQMom=    0.0000000   0.0000000   0.0000000   0.0000000   0.0000000   0.0000000   2.0440000   0.0000000   0.0000000   0.0000000
 NMagM=    0.0000000   2.7928460   2.7928460   2.7928460   0.0000000   0.0000000   0.4037610   2.7928460   0.0000000   2.7928460
 AtZNuc=   6.0000000   1.0000000   1.0000000   1.0000000   6.0000000   8.0000000   7.0000000   1.0000000   6.0000000   1.0000000

  Atom        11          12          13          14          15          16          17          18          19
 IAtWgt=           1          12          16          14           1          12           1           1           1
 AtmWgt=   1.0078250  12.0000000  15.9949146  14.0030740   1.0078250  12.0000000   1.0078250   1.0078250   1.0078250
 NucSpn=           1           0           0           2           1           0           1           1           1
 AtZEff=   0.0000000   0.0000000   0.0000000   0.0000000   0.0000000   0.0000000   0.0000000   0.0000000   0.0000000
 NQMom=    0.0000000   0.0000000   0.0000000   2.0440000   0.0000000   0.0000000   0.0000000   0.0000000   0.0000000
 NMagM=    2.7928460   0.0000000   0.0000000   0.4037610   2.7928460   0.0000000   2.7928460   2.7928460   2.7928460
 AtZNuc=   1.0000000   6.0000000   8.0000000   7.0000000   1.0000000   6.0000000   1.0000000   1.0000000   1.0000000
 Leave Link  101 at Wed Sep  3 14:21:06 2025, MaxMem=  8053063680 cpu:         6.2
 (Enter /nexus/posix0/bmm/home/sucerqdl/sw/g09/l103.exe)

 GradGradGradGradGradGradGradGradGradGradGradGradGradGradGradGradGradGrad
 Berny optimization.
 Initialization pass.
                           ----------------------------
                           !    Initial Parameters    !
                           ! (Angstroms and Degrees)  !
 --------------------------                            --------------------------
 ! Name  Definition              Value          Derivative Info.                !
 --------------------------------------------------------------------------------
 ! R1    R(1,2)                  1.0953         calculate D2E/DX2 analytically  !
 ! R2    R(1,3)                  1.0991         calculate D2E/DX2 analytically  !
 ! R3    R(1,4)                  1.0991         calculate D2E/DX2 analytically  !
 ! R4    R(1,5)                  1.6641         calculate D2E/DX2 analytically  !
 ! R5    R(1,16)                 8.2857         frozen, calculate D2E/DX2 analyt!
 ! R6    R(5,6)                  1.2462         calculate D2E/DX2 analytically  !
 ! R7    R(5,7)                  1.4343         calculate D2E/DX2 analytically  !
 ! R8    R(7,8)                  1.0123         calculate D2E/DX2 analytically  !
 ! R9    R(7,9)                  1.5446         calculate D2E/DX2 analytically  !
 ! R10   R(9,10)                 1.0995         calculate D2E/DX2 analytically  !
 ! R11   R(9,11)                 1.0995         calculate D2E/DX2 analytically  !
 ! R12   R(9,12)                 1.6335         calculate D2E/DX2 analytically  !
 ! R13   R(12,13)                1.2385         calculate D2E/DX2 analytically  !
 ! R14   R(12,14)                1.4302         calculate D2E/DX2 analytically  !
 ! R15   R(14,15)                1.013          calculate D2E/DX2 analytically  !
 ! R16   R(14,16)                1.5927         calculate D2E/DX2 analytically  !
 ! R17   R(16,17)                1.0989         calculate D2E/DX2 analytically  !
 ! R18   R(16,18)                1.0935         calculate D2E/DX2 analytically  !
 ! R19   R(16,19)                1.0989         calculate D2E/DX2 analytically  !
 ! A1    A(2,1,3)              110.6856         calculate D2E/DX2 analytically  !
 ! A2    A(2,1,4)              110.6854         calculate D2E/DX2 analytically  !
 ! A3    A(2,1,5)              113.1664         calculate D2E/DX2 analytically  !
 ! A4    A(3,1,4)              109.1711         calculate D2E/DX2 analytically  !
 ! A5    A(3,1,5)              106.4615         calculate D2E/DX2 analytically  !
 ! A6    A(4,1,5)              106.4616         calculate D2E/DX2 analytically  !
 ! A7    A(1,5,6)              114.7082         calculate D2E/DX2 analytically  !
 ! A8    A(1,5,7)              128.056          calculate D2E/DX2 analytically  !
 ! A9    A(6,5,7)              117.2358         calculate D2E/DX2 analytically  !
 ! A10   A(5,7,8)              121.8847         calculate D2E/DX2 analytically  !
 ! A11   A(5,7,9)              121.5208         calculate D2E/DX2 analytically  !
 ! A12   A(8,7,9)              116.5945         calculate D2E/DX2 analytically  !
 ! A13   A(7,9,10)             107.3147         calculate D2E/DX2 analytically  !
 ! A14   A(7,9,11)             107.3145         calculate D2E/DX2 analytically  !
 ! A15   A(7,9,12)             119.5678         calculate D2E/DX2 analytically  !
 ! A16   A(10,9,11)            106.635          calculate D2E/DX2 analytically  !
 ! A17   A(10,9,12)            107.6768         calculate D2E/DX2 analytically  !
 ! A18   A(11,9,12)            107.6773         calculate D2E/DX2 analytically  !
 ! A19   A(9,12,13)            119.8487         calculate D2E/DX2 analytically  !
 ! A20   A(9,12,14)            117.3633         calculate D2E/DX2 analytically  !
 ! A21   A(13,12,14)           122.788          calculate D2E/DX2 analytically  !
 ! A22   A(12,14,15)           114.6199         calculate D2E/DX2 analytically  !
 ! A23   A(12,14,16)           132.6881         calculate D2E/DX2 analytically  !
 ! A24   A(15,14,16)           112.692          calculate D2E/DX2 analytically  !
 ! A25   A(14,16,17)           109.015          calculate D2E/DX2 analytically  !
 ! A26   A(14,16,18)           106.8939         calculate D2E/DX2 analytically  !
 ! A27   A(14,16,19)           109.0151         calculate D2E/DX2 analytically  !
 ! A28   A(17,16,18)           110.4927         calculate D2E/DX2 analytically  !
 ! A29   A(17,16,19)           110.8274         calculate D2E/DX2 analytically  !
 ! A30   A(18,16,19)           110.4925         calculate D2E/DX2 analytically  !
 ! D1    D(2,1,5,6)           -179.9982         calculate D2E/DX2 analytically  !
 ! D2    D(2,1,5,7)              0.0018         calculate D2E/DX2 analytically  !
 ! D3    D(3,1,5,6)            -58.1898         calculate D2E/DX2 analytically  !
 ! D4    D(3,1,5,7)            121.8103         calculate D2E/DX2 analytically  !
 ! D5    D(4,1,5,6)             58.1934         calculate D2E/DX2 analytically  !
 ! D6    D(4,1,5,7)           -121.8065         calculate D2E/DX2 analytically  !
 ! D7    D(1,5,7,8)             -0.0003         calculate D2E/DX2 analytically  !
 ! D8    D(1,5,7,9)           -179.9997         calculate D2E/DX2 analytically  !
 ! D9    D(6,5,7,8)            179.9997         calculate D2E/DX2 analytically  !
 ! D10   D(6,5,7,9)              0.0004         calculate D2E/DX2 analytically  !
 ! D11   D(5,7,9,10)            57.1434         calculate D2E/DX2 analytically  !
 ! D12   D(5,7,9,11)           -57.1417         calculate D2E/DX2 analytically  !
 ! D13   D(5,7,9,12)          -179.9994         calculate D2E/DX2 analytically  !
 ! D14   D(8,7,9,10)          -122.856          calculate D2E/DX2 analytically  !
 ! D15   D(8,7,9,11)           122.8589         calculate D2E/DX2 analytically  !
 ! D16   D(8,7,9,12)             0.0012         calculate D2E/DX2 analytically  !
 ! D17   D(7,9,12,13)           -0.001          calculate D2E/DX2 analytically  !
 ! D18   D(7,9,12,14)          179.9993         calculate D2E/DX2 analytically  !
 ! D19   D(10,9,12,13)         122.6788         calculate D2E/DX2 analytically  !
 ! D20   D(10,9,12,14)         -57.3209         calculate D2E/DX2 analytically  !
 ! D21   D(11,9,12,13)        -122.681          calculate D2E/DX2 analytically  !
 ! D22   D(11,9,12,14)          57.3193         calculate D2E/DX2 analytically  !
 ! D23   D(9,12,14,15)          -0.0006         calculate D2E/DX2 analytically  !
 ! D24   D(9,12,14,16)         179.9993         calculate D2E/DX2 analytically  !
 ! D25   D(13,12,14,15)        179.9997         calculate D2E/DX2 analytically  !
 ! D26   D(13,12,14,16)         -0.0004         calculate D2E/DX2 analytically  !
 ! D27   D(12,14,16,17)       -119.4499         calculate D2E/DX2 analytically  !
 ! D28   D(12,14,16,18)         -0.0003         calculate D2E/DX2 analytically  !
 ! D29   D(12,14,16,19)        119.4492         calculate D2E/DX2 analytically  !
 ! D30   D(15,14,16,17)         60.55           calculate D2E/DX2 analytically  !
 ! D31   D(15,14,16,18)        179.9997         calculate D2E/DX2 analytically  !
 ! D32   D(15,14,16,19)        -60.5508         calculate D2E/DX2 analytically  !
 --------------------------------------------------------------------------------
 Trust Radius=3.00D-01 FncErr=1.00D-07 GrdErr=1.00D-06
 Number of steps in this run=     91 maximum allowed number of steps=    114.
 GradGradGradGradGradGradGradGradGradGradGradGradGradGradGradGradGradGrad

 Leave Link  103 at Wed Sep  3 14:21:06 2025, MaxMem=  8053063680 cpu:         0.2
 (Enter /nexus/posix0/bmm/home/sucerqdl/sw/g09/l202.exe)
                          Input orientation:                          
 ---------------------------------------------------------------------
 Center     Atomic      Atomic             Coordinates (Angstroms)
 Number     Number       Type             X           Y           Z
 ---------------------------------------------------------------------
      1          6           0        0.000000    0.000000    0.000000
      2          1           0       -0.030088    1.094842   -0.000093
      3          1           0       -0.494042   -0.402033   -0.895677
      4          1           0       -0.494019   -0.401877    0.895760
      5          6           0        1.547340   -0.612392    0.000032
      6          8           0        1.615082   -1.856779    0.000102
      7          7           0        2.785069    0.112380   -0.000011
      8          1           0        2.812149    1.124325   -0.000072
      9          6           0        4.147288   -0.615817    0.000020
     10          1           0        4.167394   -1.272378   -0.881728
     11          1           0        4.167387   -1.272310    0.881818
     12          6           0        5.527946    0.257158   -0.000017
     13          8           0        5.474874    1.494502   -0.000087
     14          7           0        6.762409   -0.465130    0.000028
     15          1           0        6.661587   -1.473074    0.000090
     16          6           0        8.285697    0.000000    0.000000
     17          1           0        8.777282   -0.384019   -0.904630
     18          1           0        8.284058    1.093508   -0.000073
     19          1           0        8.777280   -0.383896    0.904684
 ---------------------------------------------------------------------
                    Distance matrix (angstroms):
                    1          2          3          4          5
     1  C    0.000000
     2  H    1.095255   0.000000
     3  H    1.099066   1.804982   0.000000
     4  H    1.099066   1.804980   1.791437   0.000000
     5  C    1.664117   2.324420   2.239148   2.239149   0.000000
     6  O    2.460918   3.379149   2.714242   2.714268   1.246229
     7  N    2.787335   2.981667   3.437936   3.437918   1.434318
     8  H    3.028579   2.842390   3.750037   3.750008   2.148472
     9  C    4.192759   4.514070   4.731799   4.731791   2.599950
    10  H    4.445623   4.898966   4.742012   5.064188   2.842141
    11  H    4.445614   4.898976   5.064167   4.741998   2.842127
    12  C    5.533924   5.620806   6.123812   6.123790   4.074474
    13  O    5.675190   5.519451   6.326680   6.326648   4.456964
    14  N    6.778387   6.969328   7.311795   7.311777   5.217148
    15  H    6.822513   7.167475   7.290579   7.290568   5.186164
    16  C    8.285697   8.387548   8.834460   8.834438   6.766128
    17  H    8.832130   8.976357   9.271346   9.444509   7.289900
    18  H    8.355918   8.314146   8.949513   8.949487   6.949350
    19  H    8.832128   8.976359   9.444524   9.271321   7.289900
                    6          7          8          9         10
     6  O    0.000000
     7  N    2.290514   0.000000
     8  H    3.212468   1.012308   0.000000
     9  C    2.819939   1.544640   2.193328   0.000000
    10  H    2.762869   2.146114   2.891054   1.099525   0.000000
    11  H    2.762840   2.146111   2.891065   1.099525   1.763546
    12  C    4.447385   2.746696   2.850882   1.633494   2.228900
    13  O    5.111661   3.024122   2.688333   2.493176   3.184716
    14  N    5.332135   4.019049   4.258042   2.619459   2.857140
    15  H    5.061071   4.188205   4.643776   2.656424   2.653089
    16  C    6.924213   5.501776   5.587829   4.183976   4.399637
    17  H    7.367813   6.080409   6.219015   4.723237   4.694761
    18  H    7.292423   5.585830   5.471995   4.476009   4.829250
    19  H    7.367817   6.080408   6.219011   4.723244   5.023119
                   11         12         13         14         15
    11  H    0.000000
    12  C    2.228907   0.000000
    13  O    3.184733   1.238481   0.000000
    14  N    2.857137   1.430245   2.344761   0.000000
    15  H    2.653070   2.068537   3.196059   1.012974   0.000000
    16  C    4.399643   2.769715   3.183435   1.592718   2.192642
    17  H    5.023106   3.433311   3.905501   2.210136   2.545727
    18  H    4.829266   2.880214   2.837659   2.178249   3.036405
    19  H    4.694776   3.433309   3.905493   2.210137   2.545733
                   16         17         18         19
    16  C    0.000000
    17  H    1.098855   0.000000
    18  H    1.093510   1.801272   0.000000
    19  H    1.098856   1.809314   1.801271   0.000000
 Stoichiometry    C5H10N2O2
 Framework group  C1[X(C5H10N2O2)]
 Deg. of freedom    51
 Full point group                 C1      NOp   1
 Largest Abelian subgroup         C1      NOp   1
 Largest concise Abelian subgroup C1      NOp   1
                         Standard orientation:                         
 ---------------------------------------------------------------------
 Center     Atomic      Atomic             Coordinates (Angstroms)
 Number     Number       Type             X           Y           Z
 ---------------------------------------------------------------------
      1          6           0       -4.002643    0.622273   -0.000007
      2          1           0       -3.915956    1.714092   -0.000100
      3          1           0       -4.536693    0.275143   -0.895685
      4          1           0       -4.536653    0.275296    0.895752
      5          6           0       -2.529326   -0.151433    0.000024
      6          8           0       -2.594500   -1.395957    0.000094
      7          7           0       -1.221446    0.437394   -0.000018
      8          1           0       -1.086744    1.440700   -0.000079
      9          6           0        0.055470   -0.431742    0.000012
     10          1           0        0.005536   -1.086710   -0.881736
     11          1           0        0.005536   -1.086642    0.881810
     12          6           0        1.521250    0.289223   -0.000024
     13          8           0        1.600261    1.525181   -0.000094
     14          7           0        2.671766   -0.560431    0.000021
     15          1           0        2.464168   -1.551905    0.000083
     16          6           0        4.235928   -0.260182   -0.000007
     17          1           0        4.683818   -0.694373   -0.904637
     18          1           0        4.350760    0.827281   -0.000080
     19          1           0        4.683829   -0.694250    0.904677
 ---------------------------------------------------------------------
 Rotational constants (GHZ):      5.0254442      0.5527229      0.5027445
 Leave Link  202 at Wed Sep  3 14:21:07 2025, MaxMem=  8053063680 cpu:         0.2
 (Enter /nexus/posix0/bmm/home/sucerqdl/sw/g09/l301.exe)
 Standard basis: 6-31+G (6D, 7F)
 Ernie: Thresh=  0.10000D-02 Tol=  0.10000D-05 Strict=F.
 There are   137 symmetry adapted cartesian basis functions of A   symmetry.
 There are   137 symmetry adapted basis functions of A   symmetry.
   137 basis functions,   274 primitive gaussians,   137 cartesian basis functions
    35 alpha electrons       35 beta electrons
       nuclear repulsion energy       421.4337352554 Hartrees.
 IExCor= 3226 DFT=T Ex+Corr=BMK ExCW=0 ScaHFX=  0.420000
 ScaDFX=  1.000000  1.000000  1.000000  1.000000 ScalE2=  1.000000  1.000000
 IRadAn=      0 IRanWt=     -1 IRanGd=            0 ICorTp=0 IEmpDi=  4
 NAtoms=   19 NActive=   19 NUniq=   19 SFac= 1.00D+00 NAtFMM=   60 NAOKFM=F Big=F
 Integral buffers will be    131072 words long.
 Raffenetti 2 integral format.
 Two-electron integral symmetry is turned on.
 Leave Link  301 at Wed Sep  3 14:21:07 2025, MaxMem=  8053063680 cpu:         0.7
 (Enter /nexus/posix0/bmm/home/sucerqdl/sw/g09/l302.exe)
 NPDir=0 NMtPBC=     1 NCelOv=     1 NCel=       1 NClECP=     1 NCelD=      1
         NCelK=      1 NCelE2=     1 NClLst=     1 CellRange=     0.0.
 One-electron integrals computed using PRISM.
 NBasis=   137 RedAO= T EigKep=  3.05D-05  NBF=   137
 NBsUse=   137 1.00D-06 EigRej= -1.00D+00 NBFU=   137
 Precomputing XC quadrature grid using
 IXCGrd= 4 IRadAn=           0 IRanWt=          -1 IRanGd=           0 AccXCQ= 0.00D+00.
 Generated NRdTot=       0 NPtTot=           0 NUsed=           0 NTot=          32
 NSgBfM=   136   136   136   136   137 MxSgAt=    19 MxSgA2=    19.
 Leave Link  302 at Wed Sep  3 14:21:07 2025, MaxMem=  8053063680 cpu:         2.0
 (Enter /nexus/posix0/bmm/home/sucerqdl/sw/g09/l303.exe)
 DipDrv:  MaxL=1.
 Leave Link  303 at Wed Sep  3 14:21:07 2025, MaxMem=  8053063680 cpu:         0.5
 (Enter /nexus/posix0/bmm/home/sucerqdl/sw/g09/l401.exe)
 ExpMin= 4.38D-02 ExpMax= 5.48D+03 ExpMxC= 8.25D+02 IAcc=2 IRadAn=         4 AccDes= 0.00D+00
 Harris functional with IExCor= 1009 and IRadAn=       4 diagonalized for initial guess.
 HarFok:  IExCor= 1009 AccDes= 0.00D+00 IRadAn=         4 IDoV= 1 UseB2=F ITyADJ=14
 ICtDFT=  3500011 ScaDFX=  1.000000  1.000000  1.000000  1.000000
 FoFCou: FMM=F IPFlag=           0 FMFlag=      100000 FMFlg1=           0
         NFxFlg=           0 DoJE=T BraDBF=F KetDBF=T FulRan=T
         wScrn=  0.000000 ICntrl=     500 IOpCl=  0 I1Cent=   200000004 NGrid=           0
         NMat0=    1 NMatS0=      1 NMatT0=    0 NMatD0=    1 NMtDS0=    0 NMtDT0=    0
 Petite list used in FoFCou.
 Harris En= -455.953851946958    
 JPrj=0 DoOrth=F DoCkMO=F.
 Leave Link  401 at Wed Sep  3 14:21:07 2025, MaxMem=  8053063680 cpu:         3.4
 (Enter /nexus/posix0/bmm/home/sucerqdl/sw/g09/l502.exe)
 Closed shell SCF:
 Using DIIS extrapolation, IDIIS=  1040.
 Integral symmetry usage will be decided dynamically.
 Keep R1 ints in memory in canonical form, NReq=46076400.
 IVT=       78102 IEndB=       78102 NGot=  8053063680 MDV=  8008301248
 LenX=  8008301248 LenY=  8008282038
 Requested convergence on RMS density matrix=1.00D-08 within 128 cycles.
 Requested convergence on MAX density matrix=1.00D-06.
 Requested convergence on             energy=1.00D-06.
 No special actions if energy rises.
 FoFCou: FMM=F IPFlag=           0 FMFlag=           0 FMFlg1=           0
         NFxFlg=           0 DoJE=F BraDBF=F KetDBF=F FulRan=T
         wScrn=  0.000000 ICntrl=     600 IOpCl=  0 I1Cent=           0 NGrid=           0
         NMat0=    1 NMatS0=   9453 NMatT0=    0 NMatD0=    1 NMtDS0=    0 NMtDT0=    0
 Symmetry not used in FoFCou.

 Cycle   1  Pass 1  IDiag  1:
 E= -455.864760214335    
 DIIS: error= 3.82D-02 at cycle   1 NSaved=   1.
 NSaved= 1 IEnMin= 1 EnMin= -455.864760214335     IErMin= 1 ErrMin= 3.82D-02
 ErrMax= 3.82D-02  0.00D+00 EMaxC= 1.00D-01 BMatC= 2.69D-01 BMatP= 2.69D-01
 IDIUse=3 WtCom= 6.18D-01 WtEn= 3.82D-01
 Coeff-Com:  0.100D+01
 Coeff-En:   0.100D+01
 Coeff:      0.100D+01
 Gap=     0.323 Goal=   None    Shift=    0.000
 GapD=    0.323 DampG=1.000 DampE=0.500 DampFc=0.5000 IDamp=-1.
 Damping current iteration by 5.00D-01
 RMSDP=2.91D-02 MaxDP=1.53D+00              OVMax= 2.89D-01

 Cycle   2  Pass 1  IDiag  1:
 E= -455.921590834519     Delta-E=       -0.056830620184 Rises=F Damp=T
 DIIS: error= 2.04D-02 at cycle   2 NSaved=   2.
 NSaved= 2 IEnMin= 2 EnMin= -455.921590834519     IErMin= 2 ErrMin= 2.04D-02
 ErrMax= 2.04D-02  0.00D+00 EMaxC= 1.00D-01 BMatC= 4.62D-02 BMatP= 2.69D-01
 IDIUse=3 WtCom= 7.96D-01 WtEn= 2.04D-01
 Coeff-Com:  0.248D+00 0.752D+00
 Coeff-En:   0.372D+00 0.628D+00
 Coeff:      0.273D+00 0.727D+00
 Gap=     0.325 Goal=   None    Shift=    0.000
 RMSDP=1.30D-02 MaxDP=8.03D-01 DE=-5.68D-02 OVMax= 1.47D-01

 Cycle   3  Pass 1  IDiag  1:
 E= -456.086583144592     Delta-E=       -0.164992310073 Rises=F Damp=F
 DIIS: error= 1.33D-02 at cycle   3 NSaved=   3.
 NSaved= 3 IEnMin= 3 EnMin= -456.086583144592     IErMin= 3 ErrMin= 1.33D-02
 ErrMax= 1.33D-02  0.00D+00 EMaxC= 1.00D-01 BMatC= 1.68D-02 BMatP= 4.62D-02
 IDIUse=3 WtCom= 8.67D-01 WtEn= 1.33D-01
 Coeff-Com:  0.953D-01 0.379D+00 0.526D+00
 Coeff-En:   0.000D+00 0.000D+00 0.100D+01
 Coeff:      0.827D-01 0.329D+00 0.589D+00
 Gap=     0.332 Goal=   None    Shift=    0.000
 RMSDP=1.68D-03 MaxDP=4.01D-02 DE=-1.65D-01 OVMax= 4.23D-02

 Cycle   4  Pass 1  IDiag  1:
 E= -456.100591350309     Delta-E=       -0.014008205717 Rises=F Damp=F
 DIIS: error= 4.74D-03 at cycle   4 NSaved=   4.
 NSaved= 4 IEnMin= 4 EnMin= -456.100591350309     IErMin= 4 ErrMin= 4.74D-03
 ErrMax= 4.74D-03  0.00D+00 EMaxC= 1.00D-01 BMatC= 2.38D-03 BMatP= 1.68D-02
 IDIUse=3 WtCom= 9.53D-01 WtEn= 4.74D-02
 Coeff-Com:  0.196D-01 0.360D-01 0.275D+00 0.670D+00
 Coeff-En:   0.000D+00 0.000D+00 0.651D-01 0.935D+00
 Coeff:      0.186D-01 0.343D-01 0.265D+00 0.682D+00
 Gap=     0.328 Goal=   None    Shift=    0.000
 RMSDP=6.75D-04 MaxDP=2.62D-02 DE=-1.40D-02 OVMax= 1.21D-02

 Cycle   5  Pass 1  IDiag  1:
 E= -456.102431889172     Delta-E=       -0.001840538864 Rises=F Damp=F
 DIIS: error= 1.23D-03 at cycle   5 NSaved=   5.
 NSaved= 5 IEnMin= 5 EnMin= -456.102431889172     IErMin= 5 ErrMin= 1.23D-03
 ErrMax= 1.23D-03  0.00D+00 EMaxC= 1.00D-01 BMatC= 1.76D-04 BMatP= 2.38D-03
 IDIUse=3 WtCom= 9.88D-01 WtEn= 1.23D-02
 Coeff-Com:  0.378D-02-0.157D-01 0.923D-01 0.350D+00 0.570D+00
 Coeff-En:   0.000D+00 0.000D+00 0.000D+00 0.000D+00 0.100D+01
 Coeff:      0.373D-02-0.156D-01 0.911D-01 0.346D+00 0.575D+00
 Gap=     0.326 Goal=   None    Shift=    0.000
 RMSDP=2.63D-04 MaxDP=1.58D-02 DE=-1.84D-03 OVMax= 3.75D-03

 Cycle   6  Pass 1  IDiag  1:
 E= -456.102595347677     Delta-E=       -0.000163458504 Rises=F Damp=F
 DIIS: error= 2.89D-04 at cycle   6 NSaved=   6.
 NSaved= 6 IEnMin= 6 EnMin= -456.102595347677     IErMin= 6 ErrMin= 2.89D-04
 ErrMax= 2.89D-04  0.00D+00 EMaxC= 1.00D-01 BMatC= 9.06D-06 BMatP= 1.76D-04
 IDIUse=3 WtCom= 9.97D-01 WtEn= 2.89D-03
 Coeff-Com:  0.181D-02-0.934D-02 0.240D-01 0.915D-01 0.224D+00 0.668D+00
 Coeff-En:   0.000D+00 0.000D+00 0.000D+00 0.000D+00 0.000D+00 0.100D+01
 Coeff:      0.181D-02-0.931D-02 0.239D-01 0.912D-01 0.224D+00 0.669D+00
 Gap=     0.326 Goal=   None    Shift=    0.000
 RMSDP=9.07D-05 MaxDP=4.99D-03 DE=-1.63D-04 OVMax= 4.81D-04

 Cycle   7  Pass 1  IDiag  1:
 E= -456.102602918960     Delta-E=       -0.000007571283 Rises=F Damp=F
 DIIS: error= 7.25D-05 at cycle   7 NSaved=   7.
 NSaved= 7 IEnMin= 7 EnMin= -456.102602918960     IErMin= 7 ErrMin= 7.25D-05
 ErrMax= 7.25D-05  0.00D+00 EMaxC= 1.00D-01 BMatC= 1.11D-06 BMatP= 9.06D-06
 IDIUse=1 WtCom= 1.00D+00 WtEn= 0.00D+00
 Coeff-Com:  0.636D-03-0.165D-02-0.527D-02-0.271D-01-0.602D-02 0.228D+00
 Coeff-Com:  0.812D+00
 Coeff:      0.636D-03-0.165D-02-0.527D-02-0.271D-01-0.602D-02 0.228D+00
 Coeff:      0.812D+00
 Gap=     0.326 Goal=   None    Shift=    0.000
 RMSDP=3.17D-05 MaxDP=1.05D-03 DE=-7.57D-06 OVMax= 3.89D-04

 Cycle   8  Pass 1  IDiag  1:
 E= -456.102603907236     Delta-E=       -0.000000988276 Rises=F Damp=F
 DIIS: error= 4.14D-05 at cycle   8 NSaved=   8.
 NSaved= 8 IEnMin= 8 EnMin= -456.102603907236     IErMin= 8 ErrMin= 4.14D-05
 ErrMax= 4.14D-05  0.00D+00 EMaxC= 1.00D-01 BMatC= 1.81D-07 BMatP= 1.11D-06
 IDIUse=1 WtCom= 1.00D+00 WtEn= 0.00D+00
 Coeff-Com:  0.262D-03-0.320D-03-0.461D-02-0.224D-01-0.199D-01 0.706D-01
 Coeff-Com:  0.469D+00 0.507D+00
 Coeff:      0.262D-03-0.320D-03-0.461D-02-0.224D-01-0.199D-01 0.706D-01
 Coeff:      0.469D+00 0.507D+00
 Gap=     0.326 Goal=   None    Shift=    0.000
 RMSDP=1.29D-05 MaxDP=6.01D-04 DE=-9.88D-07 OVMax= 1.57D-04

 Cycle   9  Pass 1  IDiag  1:
 E= -456.102604041716     Delta-E=       -0.000000134480 Rises=F Damp=F
 DIIS: error= 1.51D-05 at cycle   9 NSaved=   9.
 NSaved= 9 IEnMin= 9 EnMin= -456.102604041716     IErMin= 9 ErrMin= 1.51D-05
 ErrMax= 1.51D-05  0.00D+00 EMaxC= 1.00D-01 BMatC= 2.31D-08 BMatP= 1.81D-07
 IDIUse=1 WtCom= 1.00D+00 WtEn= 0.00D+00
 Coeff-Com: -0.365D-04 0.251D-03-0.524D-03-0.291D-02-0.718D-02-0.360D-01
 Coeff-Com:  0.112D-01 0.277D+00 0.758D+00
 Coeff:     -0.365D-04 0.251D-03-0.524D-03-0.291D-02-0.718D-02-0.360D-01
 Coeff:      0.112D-01 0.277D+00 0.758D+00
 Gap=     0.326 Goal=   None    Shift=    0.000
 RMSDP=2.84D-06 MaxDP=5.39D-05 DE=-1.34D-07 OVMax= 6.76D-05

 Cycle  10  Pass 1  IDiag  1:
 E= -456.102604064613     Delta-E=       -0.000000022898 Rises=F Damp=F
 DIIS: error= 1.95D-06 at cycle  10 NSaved=  10.
 NSaved=10 IEnMin=10 EnMin= -456.102604064613     IErMin=10 ErrMin= 1.95D-06
 ErrMax= 1.95D-06  0.00D+00 EMaxC= 1.00D-01 BMatC= 3.38D-10 BMatP= 2.31D-08
 IDIUse=1 WtCom= 1.00D+00 WtEn= 0.00D+00
 Coeff-Com: -0.191D-04 0.794D-04 0.210D-04-0.825D-04-0.120D-02-0.115D-01
 Coeff-Com: -0.998D-02 0.460D-01 0.200D+00 0.777D+00
 Coeff:     -0.191D-04 0.794D-04 0.210D-04-0.825D-04-0.120D-02-0.115D-01
 Coeff:     -0.998D-02 0.460D-01 0.200D+00 0.777D+00
 Gap=     0.326 Goal=   None    Shift=    0.000
 RMSDP=6.27D-07 MaxDP=1.20D-05 DE=-2.29D-08 OVMax= 6.29D-06

 Cycle  11  Pass 1  IDiag  1:
 E= -456.102604064954     Delta-E=       -0.000000000341 Rises=F Damp=F
 DIIS: error= 8.51D-07 at cycle  11 NSaved=  11.
 NSaved=11 IEnMin=11 EnMin= -456.102604064954     IErMin=11 ErrMin= 8.51D-07
 ErrMax= 8.51D-07  0.00D+00 EMaxC= 1.00D-01 BMatC= 8.28D-11 BMatP= 3.38D-10
 IDIUse=1 WtCom= 1.00D+00 WtEn= 0.00D+00
 Coeff-Com: -0.539D-05 0.109D-04 0.725D-04 0.278D-03 0.252D-03-0.136D-02
 Coeff-Com: -0.603D-02-0.104D-01 0.789D-02 0.375D+00 0.634D+00
 Coeff:     -0.539D-05 0.109D-04 0.725D-04 0.278D-03 0.252D-03-0.136D-02
 Coeff:     -0.603D-02-0.104D-01 0.789D-02 0.375D+00 0.634D+00
 Gap=     0.326 Goal=   None    Shift=    0.000
 RMSDP=1.83D-07 MaxDP=8.67D-06 DE=-3.41D-10 OVMax= 3.25D-06

 Cycle  12  Pass 1  IDiag  1:
 E= -456.102604065041     Delta-E=       -0.000000000087 Rises=F Damp=F
 DIIS: error= 1.85D-07 at cycle  12 NSaved=  12.
 NSaved=12 IEnMin=12 EnMin= -456.102604065041     IErMin=12 ErrMin= 1.85D-07
 ErrMax= 1.85D-07  0.00D+00 EMaxC= 1.00D-01 BMatC= 5.84D-12 BMatP= 8.28D-11
 IDIUse=1 WtCom= 1.00D+00 WtEn= 0.00D+00
 Coeff-Com: -0.812D-06-0.410D-06 0.283D-04 0.108D-03 0.181D-03 0.286D-03
 Coeff-Com: -0.190D-02-0.681D-02-0.124D-01 0.958D-01 0.261D+00 0.663D+00
 Coeff:     -0.812D-06-0.410D-06 0.283D-04 0.108D-03 0.181D-03 0.286D-03
 Coeff:     -0.190D-02-0.681D-02-0.124D-01 0.958D-01 0.261D+00 0.663D+00
 Gap=     0.326 Goal=   None    Shift=    0.000
 RMSDP=5.05D-08 MaxDP=2.09D-06 DE=-8.71D-11 OVMax= 6.22D-07

 Cycle  13  Pass 1  IDiag  1:
 E= -456.102604065049     Delta-E=       -0.000000000008 Rises=F Damp=F
 DIIS: error= 6.67D-08 at cycle  13 NSaved=  13.
 NSaved=13 IEnMin=13 EnMin= -456.102604065049     IErMin=13 ErrMin= 6.67D-08
 ErrMax= 6.67D-08  0.00D+00 EMaxC= 1.00D-01 BMatC= 6.58D-13 BMatP= 5.84D-12
 IDIUse=1 WtCom= 1.00D+00 WtEn= 0.00D+00
 Coeff-Com:  0.299D-06-0.153D-05 0.581D-05 0.182D-04 0.603D-04 0.302D-03
 Coeff-Com: -0.225D-03-0.185D-02-0.690D-02-0.105D-02 0.471D-01 0.301D+00
 Coeff-Com:  0.661D+00
 Coeff:      0.299D-06-0.153D-05 0.581D-05 0.182D-04 0.603D-04 0.302D-03
 Coeff:     -0.225D-03-0.185D-02-0.690D-02-0.105D-02 0.471D-01 0.301D+00
 Coeff:      0.661D+00
 Gap=     0.326 Goal=   None    Shift=    0.000
 RMSDP=1.95D-08 MaxDP=7.25D-07 DE=-7.62D-12 OVMax= 1.43D-07

 Cycle  14  Pass 1  IDiag  1:
 E= -456.102604065045     Delta-E=        0.000000000004 Rises=F Damp=F
 DIIS: error= 1.05D-08 at cycle  14 NSaved=  14.
 NSaved=14 IEnMin=13 EnMin= -456.102604065049     IErMin=14 ErrMin= 1.05D-08
 ErrMax= 1.05D-08  0.00D+00 EMaxC= 1.00D-01 BMatC= 1.35D-14 BMatP= 6.58D-13
 IDIUse=1 WtCom= 1.00D+00 WtEn= 0.00D+00
 Coeff-Com:  0.854D-07-0.181D-06-0.418D-06-0.317D-05 0.386D-06 0.280D-04
 Coeff-Com:  0.595D-04 0.294D-06-0.254D-03-0.497D-02-0.630D-02 0.107D-01
 Coeff-Com:  0.102D+00 0.898D+00
 Coeff:      0.854D-07-0.181D-06-0.418D-06-0.317D-05 0.386D-06 0.280D-04
 Coeff:      0.595D-04 0.294D-06-0.254D-03-0.497D-02-0.630D-02 0.107D-01
 Coeff:      0.102D+00 0.898D+00
 Gap=     0.326 Goal=   None    Shift=    0.000
 RMSDP=3.03D-09 MaxDP=7.46D-08 DE= 3.98D-12 OVMax= 3.55D-08

 SCF Done:  E(RBMK) =  -456.102604065     A.U. after   14 cycles
            NFock= 14  Conv=0.30D-08     -V/T= 2.0081
 KE= 4.524437155395D+02 PE=-1.907276508510D+03 EE= 5.772964536500D+02
 Leave Link  502 at Wed Sep  3 14:21:14 2025, MaxMem=  8053063680 cpu:        88.3
 (Enter /nexus/posix0/bmm/home/sucerqdl/sw/g09/l801.exe)
 DoSCS=F DFT=T ScalE2(SS,OS)=  1.000000  1.000000
 Range of M.O.s used for correlation:     1   137
 NBasis=   137 NAE=    35 NBE=    35 NFC=     0 NFV=     0
 NROrb=    137 NOA=    35 NOB=    35 NVA=   102 NVB=   102

 **** Warning!!: The largest alpha MO coefficient is  0.66378994D+02

 Leave Link  801 at Wed Sep  3 14:21:14 2025, MaxMem=  8053063680 cpu:         0.3
 (Enter /nexus/posix0/bmm/home/sucerqdl/sw/g09/l1101.exe)
 Using compressed storage, NAtomX=    19.
 Will process     20 centers per pass.
 Leave Link 1101 at Wed Sep  3 14:21:14 2025, MaxMem=  8053063680 cpu:         1.6
 (Enter /nexus/posix0/bmm/home/sucerqdl/sw/g09/l1102.exe)
 Symmetrizing basis deriv contribution to polar:
 IMax=3 JMax=2 DiffMx= 0.00D+00
 Leave Link 1102 at Wed Sep  3 14:21:14 2025, MaxMem=  8053063680 cpu:         0.4
 (Enter /nexus/posix0/bmm/home/sucerqdl/sw/g09/l1110.exe)
 Forming Gx(P) for the SCF density, NAtomX=    19.
 Integral derivatives from FoFJK, PRISM(SPDF).
 Do as many integral derivatives as possible in FoFJK.
 G2DrvN: MDV=    8053063424.
 G2DrvN: will do    20 centers at a time, making    1 passes.
 Calling FoFCou, ICntrl=  3107 FMM=F I1Cent=   0 AccDes= 0.00D+00.
 FoFJK:  IHMeth= 1 ICntrl=    3107 DoSepK=F KAlg= 0 I1Cent=   0 FoldK=F
 IRaf=         0 NMat=   1 IRICut=       1 DoRegI=T DoRafI=F ISym2E= 0.
 FoFCou: FMM=F IPFlag=           0 FMFlag=      100000 FMFlg1=           0
         NFxFlg=           0 DoJE=F BraDBF=F KetDBF=F FulRan=T
         wScrn=  0.000000 ICntrl=    3107 IOpCl=  0 I1Cent=           0 NGrid=           0
         NMat0=    1 NMatS0=      1 NMatT0=    0 NMatD0=    1 NMtDS0=    0 NMtDT0=    0
 Symmetry not used in FoFCou.
 End of G2Drv F.D. properties file   721 does not exist.
 End of G2Drv F.D. properties file   722 does not exist.
 End of G2Drv F.D. properties file   788 does not exist.
 Leave Link 1110 at Wed Sep  3 14:21:23 2025, MaxMem=  8053063680 cpu:       135.2
 (Enter /nexus/posix0/bmm/home/sucerqdl/sw/g09/l1002.exe)
 Minotr:  Closed shell wavefunction.
          IDoAtm=1111111111111111111
          Direct CPHF calculation.
          Differentiating once with respect to nuclear coordinates.
          Requested convergence is 1.0D-08 RMS, and 1.0D-07 maximum.
          Secondary convergence is 1.0D-12 RMS, and 1.0D-12 maximum.
          NewPWx=T KeepS1=F KeepF1=F KeepIn=T MapXYZ=F SortEE=F KeepMc=T.
          MDV=    8053063349 using IRadAn=       2.
 Generate precomputed XC quadrature information.
 Keep R1 ints in memory in canonical form, NReq=46004208.
 FoFCou: FMM=F IPFlag=           0 FMFlag=           0 FMFlg1=           0
         NFxFlg=           0 DoJE=F BraDBF=F KetDBF=F FulRan=T
         wScrn=  0.000000 ICntrl=     600 IOpCl=  0 I1Cent=           0 NGrid=           0
         NMat0=    1 NMatS0=   9453 NMatT0=    0 NMatD0=    1 NMtDS0=    0 NMtDT0=    0
 Symmetry not used in FoFCou.
          Solving linear equations simultaneously, MaxMat=       0.
          There are    60 degrees of freedom in the 1st order CPHF.  IDoFFX=6 NUNeed=     0.
     54 vectors produced by pass  0 Test12= 5.95D-15 1.67D-09 XBig12= 1.39D-01 9.72D-02.
 AX will form    54 AO Fock derivatives at one time.
     54 vectors produced by pass  1 Test12= 5.95D-15 1.67D-09 XBig12= 9.78D-03 3.23D-02.
     54 vectors produced by pass  2 Test12= 5.95D-15 1.67D-09 XBig12= 7.75D-05 1.85D-03.
     54 vectors produced by pass  3 Test12= 5.95D-15 1.67D-09 XBig12= 2.33D-07 7.69D-05.
     54 vectors produced by pass  4 Test12= 5.95D-15 1.67D-09 XBig12= 7.25D-10 4.92D-06.
     54 vectors produced by pass  5 Test12= 5.95D-15 1.67D-09 XBig12= 1.84D-12 2.07D-07.
     26 vectors produced by pass  6 Test12= 5.95D-15 1.67D-09 XBig12= 8.78D-15 1.68D-08.
      4 vectors produced by pass  7 Test12= 5.95D-15 1.67D-09 XBig12= 1.63D-16 2.71D-09.
 InvSVY:  IOpt=1 It=  1 EMax= 6.66D-16
 Solved reduced A of dimension   354 with    60 vectors.
 End of Minotr F.D. properties file   721 does not exist.
 End of Minotr F.D. properties file   722 does not exist.
 End of Minotr F.D. properties file   788 does not exist.
 Leave Link 1002 at Wed Sep  3 14:21:31 2025, MaxMem=  8053063680 cpu:       133.5
 (Enter /nexus/posix0/bmm/home/sucerqdl/sw/g09/l601.exe)
 Copying SCF densities to generalized density rwf, IOpCl= 0 IROHF=0.

 **********************************************************************

            Population analysis using the SCF density.

 **********************************************************************

 Orbital symmetries:
       Occupied  (A) (A) (A) (A) (A) (A) (A) (A) (A) (A) (A) (A)
                 (A) (A) (A) (A) (A) (A) (A) (A) (A) (A) (A) (A)
                 (A) (A) (A) (A) (A) (A) (A) (A) (A) (A) (A)
       Virtual   (A) (A) (A) (A) (A) (A) (A) (A) (A) (A) (A) (A)
                 (A) (A) (A) (A) (A) (A) (A) (A) (A) (A) (A) (A)
                 (A) (A) (A) (A) (A) (A) (A) (A) (A) (A) (A) (A)
                 (A) (A) (A) (A) (A) (A) (A) (A) (A) (A) (A) (A)
                 (A) (A) (A) (A) (A) (A) (A) (A) (A) (A) (A) (A)
                 (A) (A) (A) (A) (A) (A) (A) (A) (A) (A) (A) (A)
                 (A) (A) (A) (A) (A) (A) (A) (A) (A) (A) (A) (A)
                 (A) (A) (A) (A) (A) (A) (A) (A) (A) (A) (A) (A)
                 (A) (A) (A) (A) (A) (A)
 The electronic state is 1-A.
 Alpha  occ. eigenvalues --  -19.54224 -19.52451 -14.72656 -14.71869 -10.63175
 Alpha  occ. eigenvalues --  -10.61729 -10.54792 -10.53673 -10.49820  -1.15119
 Alpha  occ. eigenvalues --   -1.13648  -0.99023  -0.97994  -0.81658  -0.79362
 Alpha  occ. eigenvalues --   -0.76369  -0.64370  -0.63709  -0.58083  -0.52720
 Alpha  occ. eigenvalues --   -0.52475  -0.51882  -0.50086  -0.49716  -0.48325
 Alpha  occ. eigenvalues --   -0.47373  -0.45595  -0.44819  -0.43847  -0.43546
 Alpha  occ. eigenvalues --   -0.40715  -0.31768  -0.30937  -0.29912  -0.29536
 Alpha virt. eigenvalues --    0.03040   0.03300   0.03678   0.03902   0.04714
 Alpha virt. eigenvalues --    0.06691   0.07083   0.08006   0.08645   0.09102
 Alpha virt. eigenvalues --    0.09674   0.10167   0.11137   0.11644   0.12408
 Alpha virt. eigenvalues --    0.12977   0.13477   0.15512   0.15772   0.15987
 Alpha virt. eigenvalues --    0.16814   0.17761   0.18879   0.20244   0.20506
 Alpha virt. eigenvalues --    0.21541   0.22909   0.23173   0.23669   0.24059
 Alpha virt. eigenvalues --    0.24222   0.25175   0.26712   0.27181   0.28026
 Alpha virt. eigenvalues --    0.28468   0.28938   0.29834   0.30904   0.31332
 Alpha virt. eigenvalues --    0.31742   0.33354   0.34710   0.36042   0.36306
 Alpha virt. eigenvalues --    0.36815   0.37623   0.39084   0.40631   0.40730
 Alpha virt. eigenvalues --    0.43825   0.45618   0.46246   0.47943   0.52812
 Alpha virt. eigenvalues --    0.56017   0.66848   0.69041   0.69575   0.70942
 Alpha virt. eigenvalues --    0.71530   0.74059   0.77007   0.79001   0.79471
 Alpha virt. eigenvalues --    0.82779   0.84649   0.85875   0.91424   0.93692
 Alpha virt. eigenvalues --    0.98378   0.99043   1.01390   1.02960   1.09771
 Alpha virt. eigenvalues --    1.11632   1.12502   1.12550   1.13704   1.16331
 Alpha virt. eigenvalues --    1.17316   1.19350   1.21630   1.24040   1.24829
 Alpha virt. eigenvalues --    1.28903   1.34255   1.34813   1.36562   1.37056
 Alpha virt. eigenvalues --    1.42650   1.44202   1.47125   1.49996   1.51258
 Alpha virt. eigenvalues --    1.55145   1.57364   1.61436   1.68184   1.84274
 Alpha virt. eigenvalues --    2.03835   2.12057
          Condensed to atoms (all electrons):
               1          2          3          4          5          6
     1  C    6.468722   0.352705   0.407176   0.407173  -0.375717  -0.129208
     2  H    0.352705   0.528120  -0.026226  -0.026226  -0.038343   0.006819
     3  H    0.407176  -0.026226   0.467015  -0.022658  -0.050052  -0.004398
     4  H    0.407173  -0.026226  -0.022658   0.467017  -0.050049  -0.004398
     5  C   -0.375717  -0.038343  -0.050052  -0.050049   5.776635   0.440576
     6  O   -0.129208   0.006819  -0.004398  -0.004398   0.440576   8.476861
     7  N   -0.283461   0.008026   0.000866   0.000865  -0.073076  -0.219694
     8  H    0.012076   0.000010   0.000009   0.000009   0.019675   0.005719
     9  C   -0.211610   0.000595  -0.003911  -0.003911  -0.766465  -0.046234
    10  H   -0.001794   0.000000   0.000012  -0.000004   0.001055   0.001005
    11  H   -0.001793   0.000000  -0.000004   0.000012   0.001055   0.001004
    12  C    0.092840  -0.000095  -0.000433  -0.000433   0.438741   0.014640
    13  O   -0.002100   0.000000   0.000001   0.000001   0.007050  -0.000232
    14  N   -0.000437   0.000009  -0.000001  -0.000001   0.010485  -0.002171
    15  H    0.000083   0.000000   0.000000   0.000000   0.001494   0.000094
    16  C    0.000420   0.000002   0.000000   0.000000   0.005104  -0.000200
    17  H    0.000001   0.000000   0.000000   0.000000   0.000024   0.000000
    18  H   -0.000002   0.000000   0.000000   0.000000  -0.000070   0.000000
    19  H    0.000001   0.000000   0.000000   0.000000   0.000024   0.000000
               7          8          9         10         11         12
     1  C   -0.283461   0.012076  -0.211610  -0.001794  -0.001793   0.092840
     2  H    0.008026   0.000010   0.000595   0.000000   0.000000  -0.000095
     3  H    0.000866   0.000009  -0.003911   0.000012  -0.000004  -0.000433
     4  H    0.000865   0.000009  -0.003911  -0.000004   0.000012  -0.000433
     5  C   -0.073076   0.019675  -0.766465   0.001055   0.001055   0.438741
     6  O   -0.219694   0.005719  -0.046234   0.001005   0.001004   0.014640
     7  N    7.720505   0.261845   0.284397  -0.048563  -0.048563  -0.079110
     8  H    0.261845   0.312696  -0.059496   0.001812   0.001812   0.023645
     9  C    0.284397  -0.059496  11.167521   0.334384   0.334379  -3.659057
    10  H   -0.048563   0.001812   0.334384   0.494326  -0.037406  -0.002083
    11  H   -0.048563   0.001812   0.334379  -0.037406   0.494324  -0.002078
    12  C   -0.079110   0.023645  -3.659057  -0.002083  -0.002078   7.775650
    13  O    0.021172   0.005166   0.057942   0.000804   0.000804   0.234842
    14  N    0.014209   0.002338  -0.739155   0.014957   0.014958   0.508164
    15  H    0.000094  -0.000006   0.046489  -0.000471  -0.000471  -0.039680
    16  C    0.002794   0.000631  -0.191421   0.002678   0.002679   0.000169
    17  H   -0.000022   0.000000   0.005404   0.000009  -0.000003  -0.002121
    18  H   -0.000052   0.000000  -0.009665  -0.000003  -0.000003  -0.009820
    19  H   -0.000022   0.000000   0.005404  -0.000003   0.000009  -0.002121
              13         14         15         16         17         18
     1  C   -0.002100  -0.000437   0.000083   0.000420   0.000001  -0.000002
     2  H    0.000000   0.000009   0.000000   0.000002   0.000000   0.000000
     3  H    0.000001  -0.000001   0.000000   0.000000   0.000000   0.000000
     4  H    0.000001  -0.000001   0.000000   0.000000   0.000000   0.000000
     5  C    0.007050   0.010485   0.001494   0.005104   0.000024  -0.000070
     6  O   -0.000232  -0.002171   0.000094  -0.000200   0.000000   0.000000
     7  N    0.021172   0.014209   0.000094   0.002794  -0.000022  -0.000052
     8  H    0.005166   0.002338  -0.000006   0.000631   0.000000   0.000000
     9  C    0.057942  -0.739155   0.046489  -0.191421   0.005404  -0.009665
    10  H    0.000804   0.014957  -0.000471   0.002678   0.000009  -0.000003
    11  H    0.000804   0.014958  -0.000471   0.002679  -0.000003  -0.000003
    12  C    0.234842   0.508164  -0.039680   0.000169  -0.002121  -0.009820
    13  O    8.471761  -0.214986   0.008247  -0.028289   0.000145   0.005945
    14  N   -0.214986   7.624931   0.269182   0.187958  -0.041435  -0.042890
    15  H    0.008247   0.269182   0.378751  -0.025045  -0.000900   0.002394
    16  C   -0.028289   0.187958  -0.025045   5.277514   0.382222   0.411865
    17  H    0.000145  -0.041435  -0.000900   0.382222   0.508377  -0.023344
    18  H    0.005945  -0.042890   0.002394   0.411865  -0.023344   0.447368
    19  H    0.000145  -0.041434  -0.000900   0.382221  -0.035637  -0.023344
              19
     1  C    0.000001
     2  H    0.000000
     3  H    0.000000
     4  H    0.000000
     5  C    0.000024
     6  O    0.000000
     7  N   -0.000022
     8  H    0.000000
     9  C    0.005404
    10  H   -0.000003
    11  H    0.000009
    12  C   -0.002121
    13  O    0.000145
    14  N   -0.041434
    15  H   -0.000900
    16  C    0.382221
    17  H   -0.035637
    18  H   -0.023344
    19  H    0.508377
 Mulliken charges:
               1
     1  C   -0.735074
     2  H    0.194606
     3  H    0.232604
     4  H    0.232604
     5  C    0.651854
     6  O   -0.540184
     7  N   -0.562210
     8  H    0.412060
     9  C   -0.545589
    10  H    0.239284
    11  H    0.239284
    12  C    0.708340
    13  O   -0.568419
    14  N   -0.564680
    15  H    0.360642
    16  C   -0.411302
    17  H    0.207280
    18  H    0.241619
    19  H    0.207280
 Sum of Mulliken charges =   0.00000
 Mulliken charges with hydrogens summed into heavy atoms:
               1
     1  C   -0.075260
     5  C    0.651854
     6  O   -0.540184
     7  N   -0.150151
     9  C   -0.067021
    12  C    0.708340
    13  O   -0.568419
    14  N   -0.204038
    16  C    0.244878
 APT charges:
               1
     1  C   -1.774688
     2  H    0.388796
     3  H    0.660547
     4  H    0.660535
     5  C    0.493700
     6  O   -0.496498
     7  N   -0.676528
     8  H    0.573206
     9  C   -0.818084
    10  H    0.435960
    11  H    0.435959
    12  C    0.358570
    13  O   -0.550501
    14  N   -0.192591
    15  H    0.520901
    16  C   -1.778989
    17  H    0.658729
    18  H    0.442245
    19  H    0.658729
 Sum of APT charges =   0.00000
 APT charges with hydrogens summed into heavy atoms:
               1
     1  C   -0.064811
     5  C    0.493700
     6  O   -0.496498
     7  N   -0.103322
     9  C    0.053836
    12  C    0.358570
    13  O   -0.550501
    14  N    0.328310
    16  C   -0.019285
 Electronic spatial extent (au):  <R**2>=           2173.1739
 Charge=              0.0000 electrons
 Dipole moment (field-independent basis, Debye):
    X=              2.4747    Y=             -0.4489    Z=              0.0000  Tot=              2.5151
 Quadrupole moment (field-independent basis, Debye-Ang):
   XX=            -39.2015   YY=            -61.6936   ZZ=            -55.5256
   XY=            -18.3366   XZ=              0.0009   YZ=              0.0004
 Traceless Quadrupole moment (field-independent basis, Debye-Ang):
   XX=             12.9387   YY=             -9.5533   ZZ=             -3.3854
   XY=            -18.3366   XZ=              0.0009   YZ=              0.0004
 Octapole moment (field-independent basis, Debye-Ang**2):
  XXX=             48.9273  YYY=             -1.2639  ZZZ=              0.0004  XYY=             10.6498
  XXY=             12.2715  XXZ=             -0.0008  XZZ=             -1.2556  YZZ=             -2.0492
  YYZ=             -0.0003  XYZ=             -0.0008
 Hexadecapole moment (field-independent basis, Debye-Ang**3):
 XXXX=          -2033.6308 YYYY=           -306.1004 ZZZZ=            -75.2369 XXXY=           -105.8104
 XXXZ=              0.0106 YYYX=            -53.6157 YYYZ=              0.0067 ZZZX=              0.0059
 ZZZY=              0.0062 XXYY=           -501.9103 XXZZ=           -417.4345 YYZZ=            -62.1381
 XXYZ=              0.0057 YYXZ=              0.0061 ZZXY=              3.2479
 N-N= 4.214337352554D+02 E-N=-1.907276508544D+03  KE= 4.524437155395D+02
  Exact polarizability:   0.000   0.000   0.000   0.000   0.000   0.000
 Approx polarizability: 105.208  -1.299 113.266   0.000  -0.003  63.519
 No NMR shielding tensors so no spin-rotation constants.
 Leave Link  601 at Wed Sep  3 14:21:31 2025, MaxMem=  8053063680 cpu:         1.7
 (Enter /nexus/posix0/bmm/home/sucerqdl/sw/g09/l701.exe)
 Compute integral second derivatives.
 ... and contract with generalized density number  0.
 Leave Link  701 at Wed Sep  3 14:21:32 2025, MaxMem=  8053063680 cpu:         1.6
 (Enter /nexus/posix0/bmm/home/sucerqdl/sw/g09/l702.exe)
 L702 exits ... SP integral derivatives will be done elsewhere.
 Leave Link  702 at Wed Sep  3 14:21:32 2025, MaxMem=  8053063680 cpu:         0.3
 (Enter /nexus/posix0/bmm/home/sucerqdl/sw/g09/l703.exe)
 Compute integral second derivatives, UseDBF=F ICtDFT=           0.
 Integral derivatives from FoFJK, PRISM(SPDF).
 Calling FoFJK, ICntrl=    100147 FMM=F ISym2X=0 I1Cent= 0 IOpClX= 0 NMat=1 NMatS=1 NMatT=0.
 FoFJK:  IHMeth= 1 ICntrl=  100147 DoSepK=F KAlg= 0 I1Cent=   0 FoldK=F
 IRaf=         0 NMat=   1 IRICut=       1 DoRegI=T DoRafI=F ISym2E= 0.
 FoFCou: FMM=F IPFlag=           0 FMFlag=      100000 FMFlg1=         800
         NFxFlg=           0 DoJE=F BraDBF=F KetDBF=F FulRan=T
         wScrn=  0.000000 ICntrl=  100147 IOpCl=  0 I1Cent=           0 NGrid=           0
         NMat0=    1 NMatS0=      1 NMatT0=    0 NMatD0=    1 NMtDS0=    0 NMtDT0=    0
 Symmetry not used in FoFCou.
 Leave Link  703 at Wed Sep  3 14:21:38 2025, MaxMem=  8053063680 cpu:       106.9
 (Enter /nexus/posix0/bmm/home/sucerqdl/sw/g09/l716.exe)
 Dipole        = 9.73606351D-01-1.76623350D-01-3.03310924D-06
 Polarizability= 0.00000000D+00 0.00000000D+00 0.00000000D+00
                 0.00000000D+00 0.00000000D+00 0.00000000D+00
 ***** Axes restored to original set *****
 -------------------------------------------------------------------
 Center     Atomic                   Forces (Hartrees/Bohr)
 Number     Number              X              Y              Z
 -------------------------------------------------------------------
      1        6           0.052179672   -0.002263147    0.000000140
      2        1           0.000263378   -0.000099792    0.000000097
      3        1           0.004299980    0.000575179    0.001860211
      4        1           0.004299757    0.000574825   -0.001860352
      5        6           0.006453566   -0.000959867   -0.000000070
      6        8          -0.001301113    0.004843160   -0.000000268
      7        7          -0.001923459   -0.004717808    0.000000123
      8        1          -0.000181602    0.000268921    0.000000004
      9        6          -0.001955961    0.000540074    0.000000063
     10        1          -0.000447083    0.000860258   -0.000050800
     11        1          -0.000446684    0.000860287    0.000050841
     12        6           0.004925555    0.000868637    0.000000020
     13        8           0.000311260   -0.004482957    0.000000265
     14        7          -0.003637425    0.004917706   -0.000000404
     15        1           0.000902598   -0.000244434    0.000000017
     16        6          -0.053635610   -0.002160168    0.000000500
     17        1          -0.004696823    0.000383039    0.001832261
     18        1          -0.000713064   -0.000146729   -0.000000036
     19        1          -0.004696942    0.000382816   -0.001832611
 -------------------------------------------------------------------
 Cartesian Forces:  Max     0.053635610 RMS     0.010164323
 FormGI is forming the generalized inverse of G from B-inverse, IUseBI=4.
 Leave Link  716 at Wed Sep  3 14:21:38 2025, MaxMem=  8053063680 cpu:         0.5
 (Enter /nexus/posix0/bmm/home/sucerqdl/sw/g09/l103.exe)

 GradGradGradGradGradGradGradGradGradGradGradGradGradGradGradGradGradGrad
 Berny optimization.
 Red2BG is reusing G-inverse.
 Internal  Forces:  Max     0.054313441 RMS     0.006844481
 Search for a local minimum.
 Step number   1 out of a maximum of   91
 All quantities printed in internal units (Hartrees-Bohrs-Radians)
 RMS Force = .23493D-02 SwitMx=.10000D-02 MixMth= 1
 Mixed Optimization -- RFO/linear search
 Second derivative matrix not updated -- analytic derivatives used.
 ITU=  0
     Eigenvalues ---    0.00045   0.00058   0.00181   0.00392   0.00709
     Eigenvalues ---    0.00815   0.02039   0.03081   0.04229   0.05083
     Eigenvalues ---    0.05306   0.05856   0.06164   0.06364   0.06624
     Eigenvalues ---    0.08057   0.08933   0.10282   0.10796   0.11148
     Eigenvalues ---    0.12389   0.12818   0.13412   0.14026   0.14531
     Eigenvalues ---    0.15691   0.16512   0.17123   0.17468   0.20218
     Eigenvalues ---    0.20638   0.22503   0.23294   0.24726   0.25829
     Eigenvalues ---    0.32186   0.34029   0.34477   0.34623   0.34992
     Eigenvalues ---    0.35124   0.35133   0.35505   0.35809   0.36448
     Eigenvalues ---    0.46833   0.48218   0.49052   0.74505   0.76453
     Eigenvalues --- 1000.000001000.000001000.000001000.000001000.00000
     Eigenvalues --- 1000.000001000.000001000.000001000.000001000.00000
     Eigenvalues --- 1000.000001000.000001000.000001000.000001000.00000
     Eigenvalues --- 1000.000001000.000001000.000001000.000001000.00000
     Eigenvalues --- 1000.000001000.000001000.000001000.000001000.00000
     Eigenvalues --- 1000.000001000.000001000.000001000.000001000.00000
     Eigenvalues --- 1000.00000
 RFO step:  Lambda=-1.72432112D-03 EMin= 4.54016527D-04
 Linear search not attempted -- first point.
 Iteration  1 RMS(Cart)=  0.03623097 RMS(Int)=  0.00076174
 Iteration  2 RMS(Cart)=  0.00067815 RMS(Int)=  0.00014465
 Iteration  3 RMS(Cart)=  0.00000064 RMS(Int)=  0.00014465
 Iteration  1 RMS(Cart)=  0.00004223 RMS(Int)=  0.00000921
 Iteration  2 RMS(Cart)=  0.00000523 RMS(Int)=  0.00000970
 Iteration  3 RMS(Cart)=  0.00000065 RMS(Int)=  0.00000982
 ITry= 1 IFail=0 DXMaxC= 8.93D-02 DCOld= 1.00D+10 DXMaxT= 3.00D-01 DXLimC= 3.00D+00 Rises=F
 Variable       Old X    -DE/DX   Delta X   Delta X   Delta X     New X
                                 (Linear)    (Quad)   (Total)
    R1        2.06973  -0.00010   0.00000  -0.00153  -0.00153   2.06820
    R2        2.07693  -0.00366   0.00000  -0.01176  -0.01176   2.06518
    R3        2.07693  -0.00366   0.00000  -0.01176  -0.01176   2.06518
    R4        3.14472  -0.00670   0.00000   0.01783   0.01808   3.16281
    R5       15.65770  -0.05431   0.00000   0.00000   0.00000  15.65770
    R6        2.35503  -0.00491   0.00000  -0.00319  -0.00319   2.35184
    R7        2.71047  -0.01161   0.00000  -0.02340  -0.02317   2.68730
    R8        1.91298   0.00027   0.00000   0.00021   0.00021   1.91319
    R9        2.91895  -0.00945   0.00000  -0.01514  -0.01491   2.90404
   R10        2.07780  -0.00048   0.00000  -0.00123  -0.00123   2.07657
   R11        2.07780  -0.00048   0.00000  -0.00123  -0.00123   2.07657
   R12        3.08686  -0.00612   0.00000  -0.00132  -0.00110   3.08576
   R13        2.34039  -0.00449   0.00000  -0.00349  -0.00349   2.33690
   R14        2.70277  -0.01207   0.00000  -0.02500  -0.02477   2.67800
   R15        1.91424   0.00016   0.00000   0.00068   0.00068   1.91492
   R16        3.00980  -0.00947   0.00000   0.00142   0.00168   3.01148
   R17        2.07653  -0.00374   0.00000  -0.01207  -0.01207   2.06447
   R18        2.06643  -0.00015   0.00000  -0.00141  -0.00141   2.06502
   R19        2.07654  -0.00374   0.00000  -0.01207  -0.01207   2.06447
    A1        1.93183   0.00155   0.00000   0.01305   0.01306   1.94489
    A2        1.93183   0.00155   0.00000   0.01305   0.01306   1.94488
    A3        1.97513   0.00098   0.00000   0.00996   0.00996   1.98509
    A4        1.90540   0.00320   0.00000   0.02594   0.02534   1.93074
    A5        1.85810  -0.00377   0.00000  -0.03204  -0.03226   1.82584
    A6        1.85810  -0.00377   0.00000  -0.03204  -0.03226   1.82584
    A7        2.00204  -0.00102   0.00000  -0.02187  -0.02197   1.98007
    A8        2.23500  -0.00039   0.00000   0.01887   0.01906   2.25406
    A9        2.04615   0.00142   0.00000   0.00301   0.00291   2.04906
   A10        2.12729   0.00260   0.00000   0.00182   0.00179   2.12908
   A11        2.12094  -0.00557   0.00000  -0.00775  -0.00769   2.11324
   A12        2.03496   0.00296   0.00000   0.00593   0.00591   2.04086
   A13        1.87299  -0.00027   0.00000  -0.00435  -0.00441   1.86858
   A14        1.87299  -0.00027   0.00000  -0.00435  -0.00441   1.86858
   A15        2.08685  -0.00055   0.00000   0.00596   0.00617   2.09302
   A16        1.86113   0.00046   0.00000   0.00430   0.00431   1.86544
   A17        1.87931   0.00037   0.00000  -0.00070  -0.00076   1.87856
   A18        1.87932   0.00037   0.00000  -0.00071  -0.00076   1.87856
   A19        2.09175   0.00299   0.00000   0.00039   0.00034   2.09209
   A20        2.04838  -0.00569   0.00000  -0.00519  -0.00509   2.04329
   A21        2.14306   0.00271   0.00000   0.00480   0.00475   2.14781
   A22        2.00049   0.00090   0.00000   0.00281   0.00274   2.00323
   A23        2.31584  -0.00004   0.00000   0.01559   0.01573   2.33158
   A24        1.96685  -0.00086   0.00000  -0.01840  -0.01847   1.94838
   A25        1.90267  -0.00415   0.00000  -0.02930  -0.02955   1.87312
   A26        1.86565   0.00033   0.00000   0.00385   0.00380   1.86945
   A27        1.90267  -0.00415   0.00000  -0.02930  -0.02955   1.87313
   A28        1.92846   0.00189   0.00000   0.01287   0.01282   1.94128
   A29        1.93430   0.00385   0.00000   0.02673   0.02624   1.96054
   A30        1.92846   0.00189   0.00000   0.01287   0.01282   1.94128
    D1       -3.14156   0.00000   0.00000  -0.00003  -0.00003  -3.14159
    D2        0.00003   0.00000   0.00000  -0.00003  -0.00003   0.00001
    D3       -1.01560  -0.00004   0.00000   0.00037   0.00010  -1.01550
    D4        2.12599  -0.00004   0.00000   0.00037   0.00010   2.12609
    D5        1.01567   0.00004   0.00000  -0.00042  -0.00016   1.01551
    D6       -2.12592   0.00004   0.00000  -0.00042  -0.00016  -2.12608
    D7       -0.00001   0.00000   0.00000  -0.00001  -0.00001  -0.00001
    D8       -3.14159   0.00000   0.00000  -0.00001  -0.00001   3.14159
    D9        3.14159   0.00000   0.00000  -0.00001  -0.00001   3.14158
   D10        0.00001   0.00000   0.00000  -0.00001  -0.00001   0.00000
   D11        0.99734   0.00013   0.00000   0.00036   0.00035   0.99769
   D12       -0.99731  -0.00013   0.00000  -0.00040  -0.00039  -0.99770
   D13       -3.14158   0.00000   0.00000  -0.00002  -0.00002   3.14158
   D14       -2.14424   0.00013   0.00000   0.00036   0.00035  -2.14390
   D15        2.14429  -0.00013   0.00000  -0.00041  -0.00039   2.14390
   D16        0.00002   0.00000   0.00000  -0.00002  -0.00002   0.00000
   D17       -0.00002   0.00000   0.00000   0.00000   0.00000  -0.00001
   D18        3.14158   0.00000   0.00000   0.00000   0.00000   3.14158
   D19        2.14115  -0.00045   0.00000  -0.00214  -0.00212   2.13903
   D20       -1.00044  -0.00045   0.00000  -0.00215  -0.00213  -1.00257
   D21       -2.14119   0.00045   0.00000   0.00215   0.00213  -2.13906
   D22        1.00041   0.00045   0.00000   0.00215   0.00213   1.00254
   D23       -0.00001   0.00000   0.00000   0.00000   0.00000  -0.00001
   D24        3.14158   0.00000   0.00000   0.00000   0.00000   3.14158
   D25        3.14159   0.00000   0.00000   0.00000   0.00000   3.14159
   D26       -0.00001   0.00000   0.00000   0.00000   0.00000  -0.00001
   D27       -2.08479  -0.00018   0.00000  -0.00157  -0.00138  -2.08617
   D28        0.00000   0.00000   0.00000  -0.00001  -0.00001  -0.00001
   D29        2.08478   0.00018   0.00000   0.00155   0.00137   2.08615
   D30        1.05680  -0.00018   0.00000  -0.00157  -0.00138   1.05542
   D31        3.14159   0.00000   0.00000  -0.00001  -0.00001   3.14158
   D32       -1.05681   0.00018   0.00000   0.00156   0.00137  -1.05544
         Item               Value     Threshold  Converged?
 Maximum Force            0.005666     0.000450     NO 
 RMS     Force            0.002349     0.000300     NO 
 Maximum Displacement     0.089284     0.001800     NO 
 RMS     Displacement     0.036363     0.001200     NO 
 Predicted change in Energy=-8.567330D-04
 Lowest energy point so far.  Saving SCF results.
 GradGradGradGradGradGradGradGradGradGradGradGradGradGradGradGradGradGrad

 Leave Link  103 at Wed Sep  3 14:21:39 2025, MaxMem=  8053063680 cpu:         0.9
 (Enter /nexus/posix0/bmm/home/sucerqdl/sw/g09/l202.exe)
                          Input orientation:                          
 ---------------------------------------------------------------------
 Center     Atomic      Atomic             Coordinates (Angstroms)
 Number     Number       Type             X           Y           Z
 ---------------------------------------------------------------------
      1          6           0       -0.002804   -0.019523    0.000000
      2          1           0       -0.074298    1.072584   -0.000054
      3          1           0       -0.452504   -0.449214   -0.898580
      4          1           0       -0.452499   -0.449125    0.898624
      5          6           0        1.570030   -0.591726    0.000024
      6          8           0        1.645092   -1.834001    0.000081
      7          7           0        2.790753    0.137716   -0.000007
      8          1           0        2.810663    1.149938   -0.000062
      9          6           0        4.146872   -0.585160    0.000028
     10          1           0        4.163438   -1.239540   -0.882602
     11          1           0        4.163442   -1.239447    0.882726
     12          6           0        5.531377    0.280608   -0.000023
     13          8           0        5.484969    1.516371   -0.000106
     14          7           0        6.747250   -0.447351    0.000028
     15          1           0        6.638991   -1.454883    0.000101
     16          6           0        8.282893   -0.021452   -0.000004
     17          1           0        8.733710   -0.429908   -0.907428
     18          1           0        8.313611    1.070879   -0.000094
     19          1           0        8.733708   -0.429755    0.907490
 ---------------------------------------------------------------------
                    Distance matrix (angstroms):
                    1          2          3          4          5
     1  C    0.000000
     2  H    1.094444   0.000000
     3  H    1.092844   1.807278   0.000000
     4  H    1.092844   1.807278   1.797204   0.000000
     5  C    1.673685   2.339603   2.217756   2.217756   0.000000
     6  O    2.451100   3.377060   2.669295   2.669298   1.244540
     7  N    2.797979   3.013718   3.416232   3.416227   1.422059
     8  H    3.046840   2.885998   3.743378   3.743376   2.138355
     9  C    4.188049   4.535018   4.688309   4.688304   2.576851
    10  H    4.430011   4.907465   4.683139   5.010428   2.815041
    11  H    4.430014   4.907467   5.010438   4.683137   2.815048
    12  C    5.542313   5.661344   6.094824   6.094821   4.056259
    13  O    5.698651   5.576953   6.318573   6.318577   4.446439
    14  N    6.763599   6.988829   7.255616   7.255609   5.179233
    15  H    6.795123   7.173308   7.218609   7.218596   5.141927
    16  C    8.285697   8.428497   8.791904   8.791900   6.737042
    17  H    8.793095   8.981192   9.186239   9.362085   7.222740
    18  H    8.387594   8.387910   8.942189   8.942192   6.945513
    19  H    8.793092   8.981182   9.362092   9.186232   7.222743
                    6          7          8          9         10
     6  O    0.000000
     7  N    2.280396   0.000000
     8  H    3.203505   1.012418   0.000000
     9  C    2.796159   1.536752   2.189982   0.000000
    10  H    2.733967   2.135432   2.884177   1.098873   0.000000
    11  H    2.733980   2.135433   2.884179   1.098873   1.765328
    12  C    4.424339   2.744346   2.856225   1.632914   2.227342
    13  O    5.096042   3.026465   2.699294   2.491373   3.181240
    14  N    5.287231   3.999521   4.248300   2.604027   2.843006
    15  H    5.008269   4.164770   4.630463   2.639522   2.637025
    16  C    6.880823   5.494445   5.596200   4.174258   4.385502
    17  H    7.283100   6.038571   6.196911   4.678318   4.641499
    18  H    7.273753   5.601139   5.503517   4.483769   4.831231
    19  H    7.283116   6.038567   6.196898   4.678323   4.974691
                   11         12         13         14         15
    11  H    0.000000
    12  C    2.227343   0.000000
    13  O    3.181251   1.236635   0.000000
    14  N    2.842997   1.417135   2.334429   0.000000
    15  H    2.637002   2.058820   3.187494   1.013331   0.000000
    16  C    4.385498   2.768046   3.192691   1.593609   2.181086
    17  H    4.974671   3.403403   3.894298   2.183988   2.502405
    18  H    4.831240   2.892293   2.863509   2.181401   3.030483
    19  H    4.641502   3.403399   3.894284   2.183990   2.502415
                   16         17         18         19
    16  C    0.000000
    17  H    1.092470   0.000000
    18  H    1.092763   1.803357   0.000000
    19  H    1.092470   1.814918   1.803356   0.000000
 Stoichiometry    C5H10N2O2
 Framework group  C1[X(C5H10N2O2)]
 Deg. of freedom    51
 Full point group                 C1      NOp   1
 RotChk:  IX=0 Diff= 4.53D-04
 Largest Abelian subgroup         C1      NOp   1
 Largest concise Abelian subgroup C1      NOp   1
                         Standard orientation:                         
 ---------------------------------------------------------------------
 Center     Atomic      Atomic             Coordinates (Angstroms)
 Number     Number       Type             X           Y           Z
 ---------------------------------------------------------------------
      1          6           0       -4.013434    0.591853   -0.000004
      2          1           0       -3.968559    1.685377   -0.000057
      3          1           0       -4.506219    0.212344   -0.898583
      4          1           0       -4.506204    0.212432    0.898621
      5          6           0       -2.510252   -0.144126    0.000021
      6          8           0       -2.567525   -1.387348    0.000078
      7          7           0       -1.218974    0.451570   -0.000011
      8          1           0       -1.091694    1.455955   -0.000065
      9          6           0        0.052719   -0.411219    0.000025
     10          1           0       -0.000294   -1.063658   -0.882605
     11          1           0       -0.000279   -1.063566    0.882723
     12          6           0        1.521328    0.302640   -0.000026
     13          8           0        1.606402    1.536345   -0.000109
     14          7           0        2.653029   -0.550311    0.000025
     15          1           0        2.438398   -1.540651    0.000098
     16          6           0        4.225214   -0.289882   -0.000007
     17          1           0        4.630111   -0.743898   -0.907431
     18          1           0        4.371748    0.793012   -0.000097
     19          1           0        4.630125   -0.743746    0.907487
 ---------------------------------------------------------------------
 Rotational constants (GHZ):      5.0425302      0.5561605      0.5057834
 Leave Link  202 at Wed Sep  3 14:21:39 2025, MaxMem=  8053063680 cpu:         0.1
 (Enter /nexus/posix0/bmm/home/sucerqdl/sw/g09/l301.exe)
 Standard basis: 6-31+G (6D, 7F)
 Ernie: Thresh=  0.10000D-02 Tol=  0.10000D-05 Strict=F.
 There are   137 symmetry adapted cartesian basis functions of A   symmetry.
 There are   137 symmetry adapted basis functions of A   symmetry.
   137 basis functions,   274 primitive gaussians,   137 cartesian basis functions
    35 alpha electrons       35 beta electrons
       nuclear repulsion energy       422.7175974163 Hartrees.
 IExCor= 3226 DFT=T Ex+Corr=BMK ExCW=0 ScaHFX=  0.420000
 ScaDFX=  1.000000  1.000000  1.000000  1.000000 ScalE2=  1.000000  1.000000
 IRadAn=      0 IRanWt=     -1 IRanGd=            0 ICorTp=0 IEmpDi=  4
 NAtoms=   19 NActive=   19 NUniq=   19 SFac= 1.00D+00 NAtFMM=   60 NAOKFM=F Big=F
 Integral buffers will be    131072 words long.
 Raffenetti 2 integral format.
 Two-electron integral symmetry is turned on.
 Leave Link  301 at Wed Sep  3 14:21:39 2025, MaxMem=  8053063680 cpu:         0.6
 (Enter /nexus/posix0/bmm/home/sucerqdl/sw/g09/l302.exe)
 NPDir=0 NMtPBC=     1 NCelOv=     1 NCel=       1 NClECP=     1 NCelD=      1
         NCelK=      1 NCelE2=     1 NClLst=     1 CellRange=     0.0.
 One-electron integrals computed using PRISM.
 NBasis=   137 RedAO= T EigKep=  3.01D-05  NBF=   137
 NBsUse=   137 1.00D-06 EigRej= -1.00D+00 NBFU=   137
 Precomputing XC quadrature grid using
 IXCGrd= 4 IRadAn=           0 IRanWt=          -1 IRanGd=           0 AccXCQ= 0.00D+00.
 Generated NRdTot=       0 NPtTot=           0 NUsed=           0 NTot=          32
 NSgBfM=   136   136   136   136   136 MxSgAt=    19 MxSgA2=    19.
 Leave Link  302 at Wed Sep  3 14:21:39 2025, MaxMem=  8053063680 cpu:         1.9
 (Enter /nexus/posix0/bmm/home/sucerqdl/sw/g09/l303.exe)
 DipDrv:  MaxL=1.
 Leave Link  303 at Wed Sep  3 14:21:39 2025, MaxMem=  8053063680 cpu:         0.4
 (Enter /nexus/posix0/bmm/home/sucerqdl/sw/g09/l401.exe)
 Initial guess from the checkpoint file:  "G-stretched05.chk"
 B after Tr=     0.000000    0.000000    0.000000
         Rot=    1.000000    0.000000    0.000000   -0.000195 Ang=   0.02 deg.
 Guess basis will be translated and rotated to current coordinates.
 JPrj=2 DoOrth=T DoCkMO=T.
 Generating alternative initial guess.
 ExpMin= 4.38D-02 ExpMax= 5.48D+03 ExpMxC= 8.25D+02 IAcc=2 IRadAn=         4 AccDes= 0.00D+00
 Harris functional with IExCor= 1009 and IRadAn=       4 diagonalized for initial guess.
 HarFok:  IExCor= 1009 AccDes= 0.00D+00 IRadAn=         4 IDoV= 1 UseB2=F ITyADJ=14
 ICtDFT=  3500011 ScaDFX=  1.000000  1.000000  1.000000  1.000000
 FoFCou: FMM=F IPFlag=           0 FMFlag=      100000 FMFlg1=           0
         NFxFlg=           0 DoJE=T BraDBF=F KetDBF=T FulRan=T
         wScrn=  0.000000 ICntrl=     500 IOpCl=  0 I1Cent=   200000004 NGrid=           0
         NMat0=    1 NMatS0=      1 NMatT0=    0 NMatD0=    1 NMtDS0=    0 NMtDT0=    0
 Petite list used in FoFCou.
 Harris En= -455.955986515839    
 Leave Link  401 at Wed Sep  3 14:21:39 2025, MaxMem=  8053063680 cpu:         3.5
 (Enter /nexus/posix0/bmm/home/sucerqdl/sw/g09/l502.exe)
 Closed shell SCF:
 Using DIIS extrapolation, IDIIS=  1040.
 Integral symmetry usage will be decided dynamically.
 Keep R1 ints in memory in canonical form, NReq=46076400.
 IVT=       78102 IEndB=       78102 NGot=  8053063680 MDV=  8008301248
 LenX=  8008301248 LenY=  8008282038
 Requested convergence on RMS density matrix=1.00D-08 within 128 cycles.
 Requested convergence on MAX density matrix=1.00D-06.
 Requested convergence on             energy=1.00D-06.
 No special actions if energy rises.
 FoFCou: FMM=F IPFlag=           0 FMFlag=           0 FMFlg1=           0
         NFxFlg=           0 DoJE=F BraDBF=F KetDBF=F FulRan=T
         wScrn=  0.000000 ICntrl=     600 IOpCl=  0 I1Cent=           0 NGrid=           0
         NMat0=    1 NMatS0=   9453 NMatT0=    0 NMatD0=    1 NMtDS0=    0 NMtDT0=    0
 Symmetry not used in FoFCou.

 Cycle   1  Pass 1  IDiag  1:
 E= -456.102049420996    
 DIIS: error= 2.26D-03 at cycle   1 NSaved=   1.
 NSaved= 1 IEnMin= 1 EnMin= -456.102049420996     IErMin= 1 ErrMin= 2.26D-03
 ErrMax= 2.26D-03  0.00D+00 EMaxC= 1.00D-01 BMatC= 7.93D-04 BMatP= 7.93D-04
 IDIUse=3 WtCom= 9.77D-01 WtEn= 2.26D-02
 Coeff-Com:  0.100D+01
 Coeff-En:   0.100D+01
 Coeff:      0.100D+01
 Gap=     0.505 Goal=   None    Shift=    0.000
 GapD=    0.505 DampG=2.000 DampE=1.000 DampFc=2.0000 IDamp=-1.
 RMSDP=1.01D-03 MaxDP=4.61D-02              OVMax= 1.01D-02

 Cycle   2  Pass 1  IDiag  1:
 E= -456.103348645089     Delta-E=       -0.001299224093 Rises=F Damp=F
 DIIS: error= 1.11D-03 at cycle   2 NSaved=   2.
 NSaved= 2 IEnMin= 2 EnMin= -456.103348645089     IErMin= 2 ErrMin= 1.11D-03
 ErrMax= 1.11D-03  0.00D+00 EMaxC= 1.00D-01 BMatC= 8.43D-05 BMatP= 7.93D-04
 IDIUse=3 WtCom= 9.89D-01 WtEn= 1.11D-02
 Coeff-Com:  0.661D-01 0.934D+00
 Coeff-En:   0.000D+00 0.100D+01
 Coeff:      0.654D-01 0.935D+00
 Gap=     0.327 Goal=   None    Shift=    0.000
 RMSDP=2.70D-04 MaxDP=8.24D-03 DE=-1.30D-03 OVMax= 6.57D-03

 Cycle   3  Pass 1  IDiag  1:
 E= -456.103299115287     Delta-E=        0.000049529802 Rises=F Damp=F
 DIIS: error= 1.66D-03 at cycle   3 NSaved=   3.
 NSaved= 3 IEnMin= 2 EnMin= -456.103348645089     IErMin= 2 ErrMin= 1.11D-03
 ErrMax= 1.66D-03  0.00D+00 EMaxC= 1.00D-01 BMatC= 1.84D-04 BMatP= 8.43D-05
 IDIUse=3 WtCom= 1.97D-01 WtEn= 8.03D-01
 Coeff-Com: -0.662D-01 0.635D+00 0.431D+00
 Coeff-En:   0.000D+00 0.604D+00 0.396D+00
 Coeff:     -0.130D-01 0.610D+00 0.403D+00
 Gap=     0.328 Goal=   None    Shift=    0.000
 RMSDP=1.75D-04 MaxDP=7.06D-03 DE= 4.95D-05 OVMax= 3.98D-03

 Cycle   4  Pass 1  IDiag  1:
 E= -456.103444214887     Delta-E=       -0.000145099601 Rises=F Damp=F
 DIIS: error= 1.54D-04 at cycle   4 NSaved=   4.
 NSaved= 4 IEnMin= 4 EnMin= -456.103444214887     IErMin= 4 ErrMin= 1.54D-04
 ErrMax= 1.54D-04  0.00D+00 EMaxC= 1.00D-01 BMatC= 2.30D-06 BMatP= 8.43D-05
 IDIUse=3 WtCom= 9.98D-01 WtEn= 1.54D-03
 Coeff-Com: -0.293D-01 0.165D+00 0.158D+00 0.706D+00
 Coeff-En:   0.000D+00 0.000D+00 0.000D+00 0.100D+01
 Coeff:     -0.292D-01 0.164D+00 0.158D+00 0.707D+00
 Gap=     0.328 Goal=   None    Shift=    0.000
 RMSDP=2.73D-05 MaxDP=5.44D-04 DE=-1.45D-04 OVMax= 4.62D-04

 Cycle   5  Pass 1  IDiag  1:
 E= -456.103446326098     Delta-E=       -0.000002111211 Rises=F Damp=F
 DIIS: error= 4.16D-05 at cycle   5 NSaved=   5.
 NSaved= 5 IEnMin= 5 EnMin= -456.103446326098     IErMin= 5 ErrMin= 4.16D-05
 ErrMax= 4.16D-05  0.00D+00 EMaxC= 1.00D-01 BMatC= 3.51D-07 BMatP= 2.30D-06
 IDIUse=1 WtCom= 1.00D+00 WtEn= 0.00D+00
 Coeff-Com: -0.262D-02-0.243D-01 0.338D-02 0.309D+00 0.715D+00
 Coeff:     -0.262D-02-0.243D-01 0.338D-02 0.309D+00 0.715D+00
 Gap=     0.328 Goal=   None    Shift=    0.000
 RMSDP=9.45D-06 MaxDP=1.73D-04 DE=-2.11D-06 OVMax= 1.27D-04

 Cycle   6  Pass 1  IDiag  1:
 E= -456.103446639251     Delta-E=       -0.000000313153 Rises=F Damp=F
 DIIS: error= 1.47D-05 at cycle   6 NSaved=   6.
 NSaved= 6 IEnMin= 6 EnMin= -456.103446639251     IErMin= 6 ErrMin= 1.47D-05
 ErrMax= 1.47D-05  0.00D+00 EMaxC= 1.00D-01 BMatC= 3.47D-08 BMatP= 3.51D-07
 IDIUse=1 WtCom= 1.00D+00 WtEn= 0.00D+00
 Coeff-Com:  0.837D-03-0.233D-01-0.113D-01 0.949D-01 0.334D+00 0.605D+00
 Coeff:      0.837D-03-0.233D-01-0.113D-01 0.949D-01 0.334D+00 0.605D+00
 Gap=     0.328 Goal=   None    Shift=    0.000
 RMSDP=2.65D-06 MaxDP=8.02D-05 DE=-3.13D-07 OVMax= 3.88D-05

 Cycle   7  Pass 1  IDiag  1:
 E= -456.103446670241     Delta-E=       -0.000000030990 Rises=F Damp=F
 DIIS: error= 4.34D-06 at cycle   7 NSaved=   7.
 NSaved= 7 IEnMin= 7 EnMin= -456.103446670241     IErMin= 7 ErrMin= 4.34D-06
 ErrMax= 4.34D-06  0.00D+00 EMaxC= 1.00D-01 BMatC= 2.74D-09 BMatP= 3.47D-08
 IDIUse=1 WtCom= 1.00D+00 WtEn= 0.00D+00
 Coeff-Com:  0.577D-03-0.695D-02-0.570D-02 0.104D-01 0.676D-01 0.247D+00
 Coeff-Com:  0.687D+00
 Coeff:      0.577D-03-0.695D-02-0.570D-02 0.104D-01 0.676D-01 0.247D+00
 Coeff:      0.687D+00
 Gap=     0.328 Goal=   None    Shift=    0.000
 RMSDP=1.37D-06 MaxDP=2.52D-05 DE=-3.10D-08 OVMax= 2.35D-05

 Cycle   8  Pass 1  IDiag  1:
 E= -456.103446672405     Delta-E=       -0.000000002164 Rises=F Damp=F
 DIIS: error= 2.90D-06 at cycle   8 NSaved=   8.
 NSaved= 8 IEnMin= 8 EnMin= -456.103446672405     IErMin= 8 ErrMin= 2.90D-06
 ErrMax= 2.90D-06  0.00D+00 EMaxC= 1.00D-01 BMatC= 9.22D-10 BMatP= 2.74D-09
 IDIUse=1 WtCom= 1.00D+00 WtEn= 0.00D+00
 Coeff-Com:  0.275D-03-0.200D-02-0.261D-02-0.254D-02 0.758D-02 0.822D-01
 Coeff-Com:  0.427D+00 0.491D+00
 Coeff:      0.275D-03-0.200D-02-0.261D-02-0.254D-02 0.758D-02 0.822D-01
 Coeff:      0.427D+00 0.491D+00
 Gap=     0.328 Goal=   None    Shift=    0.000
 RMSDP=9.18D-07 MaxDP=5.06D-05 DE=-2.16D-09 OVMax= 7.07D-06

 Cycle   9  Pass 1  IDiag  1:
[...]
 ! D30   D(15,14,16,17)         60.4937         -DE/DX =    0.0                 !
 ! D31   D(15,14,16,18)       -180.0002         -DE/DX =    0.0                 !
 ! D32   D(15,14,16,19)        -60.4942         -DE/DX =    0.0                 !
 --------------------------------------------------------------------------------
 Lowest energy point so far.  Saving SCF results.
 GradGradGradGradGradGradGradGradGradGradGradGradGradGradGradGradGradGrad

 Largest change from initial coordinates is atom   17       0.069 Angstoms.
 Leave Link  103 at Wed Sep  3 14:21:50 2025, MaxMem=  8053063680 cpu:         0.5
 (Enter /nexus/posix0/bmm/home/sucerqdl/sw/g09/l202.exe)
                          Input orientation:                          
 ---------------------------------------------------------------------
 Center     Atomic      Atomic             Coordinates (Angstroms)
 Number     Number       Type             X           Y           Z
 ---------------------------------------------------------------------
      1          6           0       -0.003004   -0.016849   -0.000005
      2          1           0       -0.071571    1.075449    0.000037
      3          1           0       -0.453398   -0.445223   -0.898953
      4          1           0       -0.453459   -0.445303    0.898873
      5          6           0        1.569265   -0.593131    0.000038
      6          8           0        1.641548   -1.835432    0.000125
      7          7           0        2.791325    0.134655   -0.000014
      8          1           0        2.812057    1.146883   -0.000085
      9          6           0        4.147157   -0.588628    0.000040
     10          1           0        4.164163   -1.242757   -0.882740
     11          1           0        4.164169   -1.242616    0.882925
     12          6           0        5.530925    0.278162   -0.000032
     13          8           0        5.483318    1.513873   -0.000132
     14          7           0        6.747914   -0.448434    0.000026
     15          1           0        6.641588   -1.456166    0.000110
     16          6           0        8.282693   -0.019017   -0.000011
     17          1           0        8.734634   -0.426008   -0.907597
     18          1           0        8.310735    1.073402   -0.000105
     19          1           0        8.734634   -0.425849    0.907648
 ---------------------------------------------------------------------
                    Distance matrix (angstroms):
                    1          2          3          4          5
     1  C    0.000000
     2  H    1.094448   0.000000
     3  H    1.092917   1.807323   0.000000
     4  H    1.092915   1.807327   1.797826   0.000000
     5  C    1.674553   2.340192   2.218384   2.218370   0.000000
     6  O    2.451896   3.377573   2.670172   2.670067   1.244402
     7  N    2.798433   3.013514   3.416516   3.416573   1.422359
     8  H    3.046119   2.884513   3.742454   3.742563   2.138266
     9  C    4.189363   4.535065   4.689761   4.689788   2.577896
    10  H    4.432533   4.908647   4.685957   5.013234   2.816880
    11  H    4.432539   4.908606   5.013267   4.685985   2.816886
    12  C    5.541786   5.658942   6.094544   6.094611   4.056341
    13  O    5.695862   5.572164   6.315896   6.316004   4.445142
    14  N    6.764699   6.987674   7.257208   7.257252   5.180670
    15  H    6.798694   7.174648   7.222821   7.222833   5.145221
    16  C    8.285697   8.425650   8.792556   8.792614   6.737932
    17  H    8.794172   8.979278   9.188056   9.364014   7.224559
    18  H    8.384921   8.382306   8.940032   8.940118   6.944404
    19  H    8.794170   8.979248   9.363979   9.188117   7.224559
                    6          7          8          9         10
     6  O    0.000000
     7  N    2.281059   0.000000
     8  H    3.203794   1.012440   0.000000
     9  C    2.798678   1.536691   2.189632   0.000000
    10  H    2.737573   2.135686   2.884034   1.098851   0.000000
    11  H    2.737588   2.135687   2.884028   1.098852   1.765665
    12  C    4.426571   2.743355   2.854280   1.632832   2.227197
    13  O    5.096769   3.024743   2.696353   2.491152   3.180908
    14  N    5.291384   3.999323   4.246882   2.604533   2.843588
    15  H    5.014404   4.165962   4.630461   2.640987   2.638674
    16  C    6.885069   5.493518   5.593494   4.174580   4.386233
    17  H    7.288506   6.038292   6.194714   4.679231   4.642941
    18  H    7.275945   5.598672   5.499168   4.483049   4.830910
    19  H    7.288511   6.038289   6.194705   4.679230   4.976146
                   11         12         13         14         15
    11  H    0.000000
    12  C    2.227195   0.000000
    13  O    3.180908   1.236628   0.000000
    14  N    2.843584   1.417394   2.334492   0.000000
    15  H    2.638668   2.059482   3.187902   1.013325   0.000000
    16  C    4.386229   2.767769   3.191591   1.593721   2.181426
    17  H    4.976140   3.403423   3.893288   2.184340   2.503197
    18  H    4.830909   2.891323   2.861520   2.181374   3.030637
    19  H    4.642937   3.403420   3.893281   2.184341   2.503201
                   16         17         18         19
    16  C    0.000000
    17  H    1.092523   0.000000
    18  H    1.092778   1.803181   0.000000
    19  H    1.092523   1.815245   1.803180   0.000000
 Stoichiometry    C5H10N2O2
 Framework group  C1[X(C5H10N2O2)]
 Deg. of freedom    51
 Full point group                 C1      NOp   1
 RotChk:  IX=0 Diff= 7.85D-16
 Largest Abelian subgroup         C1      NOp   1
 Largest concise Abelian subgroup C1      NOp   1
                         Standard orientation:                         
 ---------------------------------------------------------------------
 Center     Atomic      Atomic             Coordinates (Angstroms)
 Number     Number       Type             X           Y           Z
 ---------------------------------------------------------------------
      1          6           0       -4.012739    0.595433   -0.000009
      2          1           0       -3.964918    1.688836    0.000032
      3          1           0       -4.506078    0.217313   -0.898958
      4          1           0       -4.506147    0.217240    0.898869
      5          6           0       -2.510562   -0.144562    0.000034
      6          8           0       -2.570618   -1.387513    0.000120
      7          7           0       -1.218122    0.449328   -0.000019
      8          1           0       -1.090010    1.453631   -0.000090
      9          6           0        0.053231   -0.413852    0.000035
     10          1           0        0.000674   -1.066087   -0.882745
     11          1           0        0.000695   -1.065947    0.882920
     12          6           0        1.521225    0.301083   -0.000037
     13          8           0        1.605118    1.534862   -0.000137
     14          7           0        2.654169   -0.550646    0.000021
     15          1           0        2.441425   -1.541387    0.000105
     16          6           0        4.225872   -0.286648   -0.000015
     17          1           0        4.632036   -0.739334   -0.907602
     18          1           0        4.369768    0.796615   -0.000110
     19          1           0        4.632052   -0.739175    0.907644
 ---------------------------------------------------------------------
 Rotational constants (GHZ):      5.0438960      0.5560014      0.5056680
 Leave Link  202 at Wed Sep  3 14:21:50 2025, MaxMem=  8053063680 cpu:         0.1
 (Enter /nexus/posix0/bmm/home/sucerqdl/sw/g09/l601.exe)
 Copying SCF densities to generalized density rwf, IOpCl= 0 IROHF=0.

 **********************************************************************

            Population analysis using the SCF density.

 **********************************************************************

 Orbital symmetries:
       Occupied  (A) (A) (A) (A) (A) (A) (A) (A) (A) (A) (A) (A)
                 (A) (A) (A) (A) (A) (A) (A) (A) (A) (A) (A) (A)
                 (A) (A) (A) (A) (A) (A) (A) (A) (A) (A) (A)
       Virtual   (A) (A) (A) (A) (A) (A) (A) (A) (A) (A) (A) (A)
                 (A) (A) (A) (A) (A) (A) (A) (A) (A) (A) (A) (A)
                 (A) (A) (A) (A) (A) (A) (A) (A) (A) (A) (A) (A)
                 (A) (A) (A) (A) (A) (A) (A) (A) (A) (A) (A) (A)
                 (A) (A) (A) (A) (A) (A) (A) (A) (A) (A) (A) (A)
                 (A) (A) (A) (A) (A) (A) (A) (A) (A) (A) (A) (A)
                 (A) (A) (A) (A) (A) (A) (A) (A) (A) (A) (A) (A)
                 (A) (A) (A) (A) (A) (A) (A) (A) (A) (A) (A) (A)
                 (A) (A) (A) (A) (A) (A)
 The electronic state is 1-A.
 Alpha  occ. eigenvalues --  -19.54012 -19.52242 -14.72595 -14.71857 -10.63025
 Alpha  occ. eigenvalues --  -10.61545 -10.54633 -10.53676 -10.49652  -1.15136
 Alpha  occ. eigenvalues --   -1.13732  -0.99335  -0.98326  -0.81744  -0.79375
 Alpha  occ. eigenvalues --   -0.76451  -0.64507  -0.63871  -0.58160  -0.52915
 Alpha  occ. eigenvalues --   -0.52313  -0.51849  -0.50514  -0.49645  -0.48531
 Alpha  occ. eigenvalues --   -0.47530  -0.45612  -0.44651  -0.44013  -0.43339
 Alpha  occ. eigenvalues --   -0.40750  -0.31640  -0.30963  -0.29717  -0.29562
 Alpha virt. eigenvalues --    0.03249   0.03331   0.03974   0.03992   0.04754
 Alpha virt. eigenvalues --    0.06690   0.07020   0.08026   0.08594   0.09068
 Alpha virt. eigenvalues --    0.09765   0.10229   0.11136   0.11586   0.12441
 Alpha virt. eigenvalues --    0.13037   0.13465   0.15499   0.15743   0.16023
 Alpha virt. eigenvalues --    0.16940   0.17759   0.18903   0.20391   0.20609
 Alpha virt. eigenvalues --    0.21559   0.22788   0.23148   0.23832   0.24123
 Alpha virt. eigenvalues --    0.24449   0.25181   0.26867   0.27219   0.28165
 Alpha virt. eigenvalues --    0.28413   0.28904   0.29891   0.31052   0.31409
 Alpha virt. eigenvalues --    0.31800   0.33410   0.35009   0.36179   0.36395
 Alpha virt. eigenvalues --    0.37380   0.37725   0.39292   0.40697   0.41086
 Alpha virt. eigenvalues --    0.43877   0.45795   0.46238   0.48208   0.53023
 Alpha virt. eigenvalues --    0.56338   0.66814   0.69045   0.69483   0.70912
 Alpha virt. eigenvalues --    0.71311   0.74317   0.77163   0.78909   0.79645
 Alpha virt. eigenvalues --    0.82924   0.84859   0.86022   0.91462   0.93944
 Alpha virt. eigenvalues --    0.98637   0.99582   1.01439   1.03166   1.10451
 Alpha virt. eigenvalues --    1.11987   1.12547   1.12711   1.13666   1.16443
 Alpha virt. eigenvalues --    1.17249   1.19507   1.21789   1.24084   1.24995
 Alpha virt. eigenvalues --    1.29024   1.34247   1.34855   1.36721   1.36789
 Alpha virt. eigenvalues --    1.42608   1.44125   1.47447   1.49925   1.50844
 Alpha virt. eigenvalues --    1.55518   1.57118   1.62238   1.68743   1.84937
 Alpha virt. eigenvalues --    2.04437   2.12804
          Condensed to atoms (all electrons):
               1          2          3          4          5          6
     1  C    6.458220   0.344543   0.412305   0.412317  -0.358329  -0.139469
     2  H    0.344543   0.528805  -0.026053  -0.026053  -0.030687   0.006965
     3  H    0.412305  -0.026053   0.466131  -0.021637  -0.054447  -0.004611
     4  H    0.412317  -0.026053  -0.021637   0.466125  -0.054458  -0.004612
     5  C   -0.358329  -0.030687  -0.054447  -0.054458   5.810046   0.449653
     6  O   -0.139469   0.006965  -0.004611  -0.004612   0.449653   8.489488
     7  N   -0.277045   0.007591   0.000825   0.000827  -0.101370  -0.227698
     8  H    0.011342  -0.000039   0.000015   0.000015   0.022734   0.005714
     9  C   -0.217790   0.001234  -0.004415  -0.004415  -0.806804  -0.045153
    10  H   -0.001991   0.000000   0.000014  -0.000004  -0.000024   0.001043
    11  H   -0.001992   0.000000  -0.000004   0.000014  -0.000023   0.001043
    12  C    0.091279  -0.000090  -0.000427  -0.000427   0.451230   0.012689
    13  O   -0.001864   0.000000   0.000001   0.000001   0.006651  -0.000224
    14  N   -0.000438   0.000009  -0.000001  -0.000001   0.011323  -0.002547
    15  H    0.000081   0.000000   0.000000   0.000000   0.001737   0.000110
    16  C    0.000397   0.000002   0.000000   0.000000   0.005200  -0.000236
    17  H    0.000001   0.000000   0.000000   0.000000   0.000031   0.000000
    18  H   -0.000002   0.000000   0.000000   0.000000  -0.000072   0.000000
    19  H    0.000001   0.000000   0.000000   0.000000   0.000031   0.000000
               7          8          9         10         11         12
     1  C   -0.277045   0.011342  -0.217790  -0.001991  -0.001992   0.091279
     2  H    0.007591  -0.000039   0.001234   0.000000   0.000000  -0.000090
     3  H    0.000825   0.000015  -0.004415   0.000014  -0.000004  -0.000427
     4  H    0.000827   0.000015  -0.004415  -0.000004   0.000014  -0.000427
     5  C   -0.101370   0.022734  -0.806804  -0.000024  -0.000023   0.451230
     6  O   -0.227698   0.005714  -0.045153   0.001043   0.001043   0.012689
     7  N    7.762180   0.260420   0.282627  -0.049863  -0.049863  -0.079535
     8  H    0.260420   0.310675  -0.060959   0.001860   0.001860   0.024512
     9  C    0.282627  -0.060959  11.309657   0.334946   0.334948  -3.719870
    10  H   -0.049863   0.001860   0.334946   0.494147  -0.037125  -0.000974
    11  H   -0.049863   0.001860   0.334948  -0.037125   0.494149  -0.000977
    12  C   -0.079535   0.024512  -3.719870  -0.000974  -0.000977   7.805983
    13  O    0.020381   0.005115   0.066984   0.000756   0.000756   0.230334
    14  N    0.014991   0.002480  -0.783676   0.015821   0.015821   0.523043
    15  H    0.000162  -0.000006   0.049308  -0.000457  -0.000457  -0.040571
    16  C    0.002832   0.000630  -0.199819   0.002828   0.002828   0.007432
    17  H   -0.000023   0.000000   0.005637   0.000010  -0.000003  -0.002956
    18  H   -0.000038   0.000000  -0.009852  -0.000003  -0.000003  -0.008615
    19  H   -0.000023   0.000000   0.005637  -0.000003   0.000010  -0.002956
              13         14         15         16         17         18
     1  C   -0.001864  -0.000438   0.000081   0.000397   0.000001  -0.000002
     2  H    0.000000   0.000009   0.000000   0.000002   0.000000   0.000000
     3  H    0.000001  -0.000001   0.000000   0.000000   0.000000   0.000000
     4  H    0.000001  -0.000001   0.000000   0.000000   0.000000   0.000000
     5  C    0.006651   0.011323   0.001737   0.005200   0.000031  -0.000072
     6  O   -0.000224  -0.002547   0.000110  -0.000236   0.000000   0.000000
     7  N    0.020381   0.014991   0.000162   0.002832  -0.000023  -0.000038
     8  H    0.005115   0.002480  -0.000006   0.000630   0.000000   0.000000
     9  C    0.066984  -0.783676   0.049308  -0.199819   0.005637  -0.009852
    10  H    0.000756   0.015821  -0.000457   0.002828   0.000010  -0.000003
    11  H    0.000756   0.015821  -0.000457   0.002828  -0.000003  -0.000003
    12  C    0.230334   0.523043  -0.040571   0.007432  -0.002956  -0.008615
    13  O    8.480393  -0.221607   0.008441  -0.029036   0.000133   0.005596
    14  N   -0.221607   7.669932   0.266936   0.185597  -0.043242  -0.042407
    15  H    0.008441   0.266936   0.380241  -0.026672  -0.001041   0.002438
    16  C   -0.029036   0.185597  -0.026672   5.274478   0.385028   0.411077
    17  H    0.000133  -0.043242  -0.001041   0.385028   0.504898  -0.022890
    18  H    0.005596  -0.042407   0.002438   0.411077  -0.022890   0.445849
    19  H    0.000133  -0.043242  -0.001041   0.385028  -0.034344  -0.022891
              19
     1  C    0.000001
     2  H    0.000000
     3  H    0.000000
     4  H    0.000000
     5  C    0.000031
     6  O    0.000000
     7  N   -0.000023
     8  H    0.000000
     9  C    0.005637
    10  H   -0.000003
    11  H    0.000010
    12  C   -0.002956
    13  O    0.000133
    14  N   -0.043242
    15  H   -0.001041
    16  C    0.385028
    17  H   -0.034344
    18  H   -0.022891
    19  H    0.504898
 Mulliken charges:
               1
     1  C   -0.731566
     2  H    0.193773
     3  H    0.232305
     4  H    0.232308
     5  C    0.647577
     6  O   -0.542156
     7  N   -0.567377
     8  H    0.413631
     9  C   -0.538223
    10  H    0.239019
    11  H    0.239018
    12  C    0.710898
    13  O   -0.572945
    14  N   -0.568793
    15  H    0.360791
    16  C   -0.407595
    17  H    0.208761
    18  H    0.241813
    19  H    0.208761
 Sum of Mulliken charges =   0.00000
 Mulliken charges with hydrogens summed into heavy atoms:
               1
     1  C   -0.073181
     5  C    0.647577
     6  O   -0.542156
     7  N   -0.153745
     9  C   -0.060186
    12  C    0.710898
    13  O   -0.572945
    14  N   -0.208002
    16  C    0.251740
 Electronic spatial extent (au):  <R**2>=           2160.8559
 Charge=              0.0000 electrons
 Dipole moment (field-independent basis, Debye):
    X=              2.5506    Y=             -0.5289    Z=              0.0001  Tot=              2.6048
 Quadrupole moment (field-independent basis, Debye-Ang):
   XX=            -39.4871   YY=            -61.7609   ZZ=            -55.3441
   XY=            -18.3677   XZ=              0.0013   YZ=              0.0006
 Traceless Quadrupole moment (field-independent basis, Debye-Ang):
   XX=             12.7103   YY=             -9.5635   ZZ=             -3.1467
   XY=            -18.3677   XZ=              0.0013   YZ=              0.0006
 Octapole moment (field-independent basis, Debye-Ang**2):
  XXX=             50.6218  YYY=             -1.3736  ZZZ=              0.0002  XYY=             10.3681
  XXY=             10.4055  XXZ=             -0.0012  XZZ=             -1.0616  YZZ=             -2.1658
  YYZ=              0.0000  XYZ=             -0.0007
 Hexadecapole moment (field-independent basis, Debye-Ang**3):
 XXXX=          -2042.9877 YYYY=           -305.3576 ZZZZ=            -74.8077 XXXY=           -101.9065
 XXXZ=              0.0142 YYYX=            -54.5490 YYYZ=              0.0101 ZZZX=              0.0107
 ZZZY=              0.0081 XXYY=           -497.1968 XXZZ=           -413.6063 YYZZ=            -61.8057
 XXYZ=              0.0057 YYXZ=              0.0074 ZZXY=              3.0325
 N-N= 4.226805496805D+02 E-N=-1.909865193864D+03  KE= 4.525596218767D+02
 No NMR shielding tensors so no spin-rotation constants.
 Leave Link  601 at Wed Sep  3 14:21:50 2025, MaxMem=  8053063680 cpu:         1.3
 (Enter /nexus/posix0/bmm/home/sucerqdl/sw/g09/l9999.exe)
 1\1\GINC-SLURM-ORBIT-CPU1\FOpt\RBMK\6-31+G\C5H10N2O2\SUCERQDL\03-Sep-2
 025\0\\#P bmk/6-31+g opt(modredun,calcfc)\\Gaussian input prepared by 
 ASE\\0,1\C,-0.0030038057,-0.0168494493,-0.00000498\H,-0.0715710669,1.0
 754485468,0.0000366844\H,-0.4533979264,-0.4452234493,-0.8989531272\H,-
 0.4534587705,-0.4453033094,0.8988729541\C,1.5692646203,-0.5931311047,0
 .0000383008\O,1.6415476087,-1.8354319651,0.0001246882\N,2.7913252295,0
 .1346551969,-0.0000144718\H,2.8120573557,1.1468831931,-0.0000852065\C,
 4.1471568073,-0.5886280361,0.0000396619\H,4.1641632527,-1.242756842,-0
 .8827404171\H,4.1641694566,-1.2426155016,0.8829245553\C,5.5309246595,0
 .2781623323,-0.0000323513\O,5.4833184853,1.5138734349,-0.0001321619\N,
 6.7479138574,-0.4484340763,0.0000257494\H,6.6415884104,-1.4561655666,0
 .0001097134\C,8.2826930825,-0.0190167947,-0.000010505\H,8.7346343763,-
 0.4260083112,-0.9075973278\H,8.3107348172,1.0734016766,-0.0001052737\H
 ,8.7346335848,-0.425849167,0.9076480369\\Version=ES64L-G09RevD.01\Stat
 e=1-A\HF=-456.1034485\RMSD=2.798e-09\RMSF=1.134e-02\Dipole=1.0198991,-
 0.1003505,0.0000206\Quadrupole=12.1470778,-9.8075529,-2.3395249,-11.59
 92111,0.0009066,0.0005542\PG=C01 [X(C5H10N2O2)]\\@


 STEINBACH'S GUIDELINES FOR SYSTEMS PROGRAMMING:
 NEVER TEST FOR AN ERROR CONDITION YOU DON'T KNOW HOW
 TO HANDLE.
 Job cpu time:       0 days  0 hours 10 minutes 35.5 seconds.
 File lengths (MBytes):  RWF=    132 Int=      0 D2E=      0 Chk=      3 Scr=      2
 Normal termination of Gaussian 09 at Wed Sep  3 14:21:51 2025.
