 Entering Gaussian System, Link 0=g09
 Input=G-stretched08.com
 Output=G-stretched08.log
 Initial command:
 /nexus/posix0/bmm/home/sucerqdl/sw/g09/l1.exe "/nexus/posix0/bmm/home/sucerqdl/sw/g09/g09_scratch/Gau-2877842.inp" -scrdir="/nexus/posix0/bmm/home/sucerqdl/sw/g09/g09_scratch/"
 Entering Link 1 = /nexus/posix0/bmm/home/sucerqdl/sw/g09/l1.exe PID=   2877844.
  
 Copyright (c) 1988,1990,1992,1993,1995,1998,2003,2009,2013,
            Gaussian, Inc.  All Rights Reserved.
  
 This is part of the Gaussian(R) 09 program.  It is based on
 the Gaussian(R) 03 system (copyright 2003, Gaussian, Inc.),
 the Gaussian(R) 98 system (copyright 1998, Gaussian, Inc.),
 the Gaussian(R) 94 system (copyright 1995, Gaussian, Inc.),
 the Gaussian 92(TM) system (copyright 1992, Gaussian, Inc.),
 the Gaussian 90(TM) system (copyright 1990, Gaussian, Inc.),
 the Gaussian 88(TM) system (copyright 1988, Gaussian, Inc.),
 the Gaussian 86(TM) system (copyright 1986, Carnegie Mellon
 University), and the Gaussian 82(TM) system (copyright 1983,
 Carnegie Mellon University). Gaussian is a federally registered
 trademark of Gaussian, Inc.
  
 This software contains proprietary and confidential information,
 including trade secrets, belonging to Gaussian, Inc.
  
 This software is provided under written license and may be
 used, copied, transmitted, or stored only in accord with that
 written license.
  
 The following legend is applicable only to US Government
 contracts under FAR:
  
                    RESTRICTED RIGHTS LEGEND
  
 Use, reproduction and disclosure by the US Government is
 subject to restrictions as set forth in subparagraphs (a)
 and (c) of the Commercial Computer Software - Restricted
 Rights clause in FAR 52.227-19.
  
 Gaussian, Inc.
 340 Quinnipiac St., Bldg. 40, Wallingford CT 06492
  
  
 ---------------------------------------------------------------
 Warning -- This program may not be used in any manner that
 competes with the business of Gaussian, Inc. or will provide
 assistance to any competitor of Gaussian, Inc.  The licensee
 of this program is prohibited from giving any competitor of
 Gaussian, Inc. access to this program.  By using this program,
 the user acknowledges that Gaussian, Inc. is engaged in the
 business of creating and licensing software in the field of
 computational chemistry and represents and warrants to the
 licensee that it is not a competitor of Gaussian, Inc. and that
 it will not use this program in any manner prohibited above.
 ---------------------------------------------------------------
  

 Cite this work as:
 Gaussian 09, Revision D.01,
 M. J. Frisch, G. W. Trucks, H. B. Schlegel, G. E. Scuseria, 
 M. A. Robb, J. R. Cheeseman, G. Scalmani, V. Barone, B. Mennucci, 
 G. A. Petersson, H. Nakatsuji, M. Caricato, X. Li, H. P. Hratchian, 
 A. F. Izmaylov, J. Bloino, G. Zheng, J. L. Sonnenberg, M. Hada, 
 M. Ehara, K. Toyota, R. Fukuda, J. Hasegawa, M. Ishida, T. Nakajima, 
 Y. Honda, O. Kitao, H. Nakai, T. Vreven, J. A. Montgomery, Jr., 
 J. E. Peralta, F. Ogliaro, M. Bearpark, J. J. Heyd, E. Brothers, 
 K. N. Kudin, V. N. Staroverov, T. Keith, R. Kobayashi, J. Normand, 
 K. Raghavachari, A. Rendell, J. C. Burant, S. S. Iyengar, J. Tomasi, 
 M. Cossi, N. Rega, J. M. Millam, M. Klene, J. E. Knox, J. B. Cross, 
 V. Bakken, C. Adamo, J. Jaramillo, R. Gomperts, R. E. Stratmann, 
 O. Yazyev, A. J. Austin, R. Cammi, C. Pomelli, J. W. Ochterski, 
 R. L. Martin, K. Morokuma, V. G. Zakrzewski, G. A. Voth, 
 P. Salvador, J. J. Dannenberg, S. Dapprich, A. D. Daniels, 
 O. Farkas, J. B. Foresman, J. V. Ortiz, J. Cioslowski, 
 and D. J. Fox, Gaussian, Inc., Wallingford CT, 2013.
 
 ******************************************
 Gaussian 09:  ES64L-G09RevD.01 24-Apr-2013
                 3-Sep-2025 
 ******************************************
 %mem=60GB
 %NProcShared=16
 Will use up to   16 processors via shared memory.
 %chk=G-stretched08
 ----------------------------------
 #P bmk/6-31+g opt(modredun,calcfc)
 ----------------------------------
 1/10=4,14=-1,18=120,19=15,26=3,38=1/1,3;
 2/9=110,12=2,17=6,18=5,40=1/2;
 3/5=1,6=6,7=10,11=2,16=1,25=1,30=1,71=2,74=-34,140=1/1,2,3;
 4//1;
 5/5=2,38=5/2;
 8/6=4,10=90,11=11/1;
 11/6=1,8=1,9=11,15=111,16=1/1,2,10;
 10/6=1,13=1/2;
 6/7=2,8=2,9=2,10=2,28=1/1;
 7/10=1,18=20,25=1/1,2,3,16;
 1/10=4,14=-1,18=20,19=15,26=3/3(2);
 2/9=110/2;
 99//99;
 2/9=110/2;
 3/5=1,6=6,7=10,11=2,16=1,25=1,30=1,71=1,74=-34/1,2,3;
 4/5=5,16=3,69=1/1;
 5/5=2,38=5/2;
 7//1,2,3,16;
 1/14=-1,18=20,19=15,26=3/3(-5);
 2/9=110/2;
 6/7=2,8=2,9=2,10=2,19=2,28=1/1;
 99/9=1/99;
 Leave Link    1 at Wed Sep  3 14:23:35 2025, MaxMem=  8053063680 cpu:         1.3
 (Enter /nexus/posix0/bmm/home/sucerqdl/sw/g09/l101.exe)
 ------------------------------
 Gaussian input prepared by ASE
 ------------------------------
 Symbolic Z-matrix:
 Charge =  0 Multiplicity = 1
 C                     0.        0.        0. 
 H                    -0.12661   1.08556  -0.00007 
 H                    -0.39207  -0.47217  -0.90596 
 H                    -0.39207  -0.47205   0.90602 
 C                     1.75148  -0.52855   0.00003 
 O                     1.8168   -1.76638   0.00011 
 N                     3.03215   0.19717  -0.00001 
 H                     3.04228   1.20958  -0.00008 
 C                     4.46882  -0.51684   0.00003 
 H                     4.48575  -1.16405  -0.88608 
 H                     4.48575  -1.16395   0.88621 
 C                     5.95497   0.34646  -0.00002 
 O                     5.909     1.57863  -0.0001 
 N                     7.2245   -0.38255   0.00003 
 H                     7.11114  -1.39074   0.00009 
 C                     8.8857    0.        0. 
 H                     9.29865  -0.43936  -0.91311 
 H                     8.94909   1.08956  -0.00004 
 H                     9.29865  -0.43929   0.91314 
 
 The following ModRedundant input section has been read:
 B       1      16 F                                                           
 
 NAtoms=     19 NQM=       19 NQMF=       0 NMMI=      0 NMMIF=      0
                NMic=       0 NMicF=      0.
                    Isotopes and Nuclear Properties:
 (Nuclear quadrupole moments (NQMom) in fm**2, nuclear magnetic moments (NMagM)
  in nuclear magnetons)

  Atom         1           2           3           4           5           6           7           8           9          10
 IAtWgt=          12           1           1           1          12          16          14           1          12           1
 AtmWgt=  12.0000000   1.0078250   1.0078250   1.0078250  12.0000000  15.9949146  14.0030740   1.0078250  12.0000000   1.0078250
 NucSpn=           0           1           1           1           0           0           2           1           0           1
 AtZEff=   0.0000000   0.0000000   0.0000000   0.0000000   0.0000000   0.0000000   0.0000000   0.0000000   0.0000000   0.0000000
 NQMom=    0.0000000   0.0000000   0.0000000   0.0000000   0.0000000   0.0000000   2.0440000   0.0000000   0.0000000   0.0000000
 NMagM=    0.0000000   2.7928460   2.7928460   2.7928460   0.0000000   0.0000000   0.4037610   2.7928460   0.0000000   2.7928460
 AtZNuc=   6.0000000   1.0000000   1.0000000   1.0000000   6.0000000   8.0000000   7.0000000   1.0000000   6.0000000   1.0000000

  Atom        11          12          13          14          15          16          17          18          19
 IAtWgt=           1          12          16          14           1          12           1           1           1
 AtmWgt=   1.0078250  12.0000000  15.9949146  14.0030740   1.0078250  12.0000000   1.0078250   1.0078250   1.0078250
 NucSpn=           1           0           0           2           1           0           1           1           1
 AtZEff=   0.0000000   0.0000000   0.0000000   0.0000000   0.0000000   0.0000000   0.0000000   0.0000000   0.0000000
 NQMom=    0.0000000   0.0000000   0.0000000   2.0440000   0.0000000   0.0000000   0.0000000   0.0000000   0.0000000
 NMagM=    2.7928460   0.0000000   0.0000000   0.4037610   2.7928460   0.0000000   2.7928460   2.7928460   2.7928460
 AtZNuc=   1.0000000   6.0000000   8.0000000   7.0000000   1.0000000   6.0000000   1.0000000   1.0000000   1.0000000
 Leave Link  101 at Wed Sep  3 14:23:36 2025, MaxMem=  8053063680 cpu:        12.1
 (Enter /nexus/posix0/bmm/home/sucerqdl/sw/g09/l103.exe)

 GradGradGradGradGradGradGradGradGradGradGradGradGradGradGradGradGradGrad
 Berny optimization.
 Initialization pass.
                           ----------------------------
                           !    Initial Parameters    !
                           ! (Angstroms and Degrees)  !
 --------------------------                            --------------------------
 ! Name  Definition              Value          Derivative Info.                !
 --------------------------------------------------------------------------------
 ! R1    R(1,2)                  1.0929         calculate D2E/DX2 analytically  !
 ! R2    R(1,3)                  1.0943         calculate D2E/DX2 analytically  !
 ! R3    R(1,4)                  1.0943         calculate D2E/DX2 analytically  !
 ! R4    R(1,5)                  1.8295         calculate D2E/DX2 analytically  !
 ! R5    R(1,16)                 8.8857         frozen, calculate D2E/DX2 analyt!
 ! R6    R(5,6)                  1.2396         calculate D2E/DX2 analytically  !
 ! R7    R(5,7)                  1.472          calculate D2E/DX2 analytically  !
 ! R8    R(7,8)                  1.0125         calculate D2E/DX2 analytically  !
 ! R9    R(7,9)                  1.6043         calculate D2E/DX2 analytically  !
 ! R10   R(9,10)                 1.0974         calculate D2E/DX2 analytically  !
 ! R11   R(9,11)                 1.0974         calculate D2E/DX2 analytically  !
 ! R12   R(9,12)                 1.7187         calculate D2E/DX2 analytically  !
 ! R13   R(12,13)                1.233          calculate D2E/DX2 analytically  !
 ! R14   R(12,14)                1.464          calculate D2E/DX2 analytically  !
 ! R15   R(14,15)                1.0145         calculate D2E/DX2 analytically  !
 ! R16   R(14,16)                1.7047         calculate D2E/DX2 analytically  !
 ! R17   R(16,17)                1.0942         calculate D2E/DX2 analytically  !
 ! R18   R(16,18)                1.0914         calculate D2E/DX2 analytically  !
 ! R19   R(16,19)                1.0942         calculate D2E/DX2 analytically  !
 ! A1    A(2,1,3)              112.7699         calculate D2E/DX2 analytically  !
 ! A2    A(2,1,4)              112.7697         calculate D2E/DX2 analytically  !
 ! A3    A(2,1,5)              113.4451         calculate D2E/DX2 analytically  !
 ! A4    A(3,1,4)              111.7756         calculate D2E/DX2 analytically  !
 ! A5    A(3,1,5)              102.6129         calculate D2E/DX2 analytically  !
 ! A6    A(4,1,5)              102.613          calculate D2E/DX2 analytically  !
 ! A7    A(1,5,6)              109.8133         calculate D2E/DX2 analytically  !
 ! A8    A(1,5,7)              133.6684         calculate D2E/DX2 analytically  !
 ! A9    A(6,5,7)              116.5183         calculate D2E/DX2 analytically  !
 ! A10   A(5,7,8)              120.1123         calculate D2E/DX2 analytically  !
 ! A11   A(5,7,9)              124.034          calculate D2E/DX2 analytically  !
 ! A12   A(8,7,9)              115.8537         calculate D2E/DX2 analytically  !
 ! A13   A(7,9,10)             106.0374         calculate D2E/DX2 analytically  !
 ! A14   A(7,9,11)             106.0374         calculate D2E/DX2 analytically  !
 ! A15   A(7,9,12)             123.421          calculate D2E/DX2 analytically  !
 ! A16   A(10,9,11)            107.6994         calculate D2E/DX2 analytically  !
 ! A17   A(10,9,12)            106.4315         calculate D2E/DX2 analytically  !
 ! A18   A(11,9,12)            106.4315         calculate D2E/DX2 analytically  !
 ! A19   A(9,12,13)            118.0151         calculate D2E/DX2 analytically  !
 ! A20   A(9,12,14)            119.9819         calculate D2E/DX2 analytically  !
 ! A21   A(13,12,14)           122.0029         calculate D2E/DX2 analytically  !
 ! A22   A(12,14,15)           113.4507         calculate D2E/DX2 analytically  !
 ! A23   A(12,14,16)           137.1656         calculate D2E/DX2 analytically  !
 ! A24   A(15,14,16)           109.3837         calculate D2E/DX2 analytically  !
 ! A25   A(14,16,17)           106.1211         calculate D2E/DX2 analytically  !
 ! A26   A(14,16,18)           106.2983         calculate D2E/DX2 analytically  !
 ! A27   A(14,16,19)           106.1209         calculate D2E/DX2 analytically  !
 ! A28   A(17,16,18)           112.2652         calculate D2E/DX2 analytically  !
 ! A29   A(17,16,19)           113.1261         calculate D2E/DX2 analytically  !
 ! A30   A(18,16,19)           112.2652         calculate D2E/DX2 analytically  !
 ! D1    D(2,1,5,6)           -179.9999         calculate D2E/DX2 analytically  !
 ! D2    D(2,1,5,7)              0.0001         calculate D2E/DX2 analytically  !
 ! D3    D(3,1,5,6)            -58.0396         calculate D2E/DX2 analytically  !
 ! D4    D(3,1,5,7)            121.9604         calculate D2E/DX2 analytically  !
 ! D5    D(4,1,5,6)             58.0399         calculate D2E/DX2 analytically  !
 ! D6    D(4,1,5,7)           -121.9601         calculate D2E/DX2 analytically  !
 ! D7    D(1,5,7,8)             -0.0001         calculate D2E/DX2 analytically  !
 ! D8    D(1,5,7,9)           -179.9999         calculate D2E/DX2 analytically  !
 ! D9    D(6,5,7,8)            179.9999         calculate D2E/DX2 analytically  !
 ! D10   D(6,5,7,9)              0.0001         calculate D2E/DX2 analytically  !
 ! D11   D(5,7,9,10)            57.1583         calculate D2E/DX2 analytically  !
 ! D12   D(5,7,9,11)           -57.1579         calculate D2E/DX2 analytically  !
 ! D13   D(5,7,9,12)          -179.9999         calculate D2E/DX2 analytically  !
 ! D14   D(8,7,9,10)          -122.8415         calculate D2E/DX2 analytically  !
 ! D15   D(8,7,9,11)           122.8423         calculate D2E/DX2 analytically  !
 ! D16   D(8,7,9,12)             0.0003         calculate D2E/DX2 analytically  !
 ! D17   D(7,9,12,13)           -0.0004         calculate D2E/DX2 analytically  !
 ! D18   D(7,9,12,14)          179.9998         calculate D2E/DX2 analytically  !
 ! D19   D(10,9,12,13)         122.6631         calculate D2E/DX2 analytically  !
 ! D20   D(10,9,12,14)         -57.3368         calculate D2E/DX2 analytically  !
 ! D21   D(11,9,12,13)        -122.6639         calculate D2E/DX2 analytically  !
 ! D22   D(11,9,12,14)          57.3362         calculate D2E/DX2 analytically  !
 ! D23   D(9,12,14,15)          -0.0002         calculate D2E/DX2 analytically  !
 ! D24   D(9,12,14,16)         179.9998         calculate D2E/DX2 analytically  !
 ! D25   D(13,12,14,15)        179.9999         calculate D2E/DX2 analytically  !
 ! D26   D(13,12,14,16)         -0.0001         calculate D2E/DX2 analytically  !
 ! D27   D(12,14,16,17)       -119.6962         calculate D2E/DX2 analytically  !
 ! D28   D(12,14,16,18)          0.0017         calculate D2E/DX2 analytically  !
 ! D29   D(12,14,16,19)        119.6995         calculate D2E/DX2 analytically  !
 ! D30   D(15,14,16,17)         60.3038         calculate D2E/DX2 analytically  !
 ! D31   D(15,14,16,18)       -179.9983         calculate D2E/DX2 analytically  !
 ! D32   D(15,14,16,19)        -60.3005         calculate D2E/DX2 analytically  !
 --------------------------------------------------------------------------------
 Trust Radius=3.00D-01 FncErr=1.00D-07 GrdErr=1.00D-06
 Number of steps in this run=     91 maximum allowed number of steps=    114.
 GradGradGradGradGradGradGradGradGradGradGradGradGradGradGradGradGradGrad

 Leave Link  103 at Wed Sep  3 14:23:36 2025, MaxMem=  8053063680 cpu:         0.3
 (Enter /nexus/posix0/bmm/home/sucerqdl/sw/g09/l202.exe)
                          Input orientation:                          
 ---------------------------------------------------------------------
 Center     Atomic      Atomic             Coordinates (Angstroms)
 Number     Number       Type             X           Y           Z
 ---------------------------------------------------------------------
      1          6           0        0.000000    0.000000    0.000000
      2          1           0       -0.126613    1.085557   -0.000070
      3          1           0       -0.392066   -0.472174   -0.905960
      4          1           0       -0.392066   -0.472055    0.906024
      5          6           0        1.751478   -0.528554    0.000033
      6          8           0        1.816800   -1.766384    0.000111
      7          7           0        3.032151    0.197169   -0.000014
      8          1           0        3.042280    1.209580   -0.000080
      9          6           0        4.468820   -0.516843    0.000029
     10          1           0        4.485747   -1.164053   -0.886077
     11          1           0        4.485747   -1.163949    0.886212
     12          6           0        5.954974    0.346456   -0.000023
     13          8           0        5.908997    1.578633   -0.000104
     14          7           0        7.224501   -0.382552    0.000025
     15          1           0        7.111142   -1.390736    0.000093
     16          6           0        8.885696    0.000000    0.000000
     17          1           0        9.298646   -0.439359   -0.913109
     18          1           0        8.949090    1.089559   -0.000042
     19          1           0        9.298654   -0.439289    0.913139
 ---------------------------------------------------------------------
                    Distance matrix (angstroms):
                    1          2          3          4          5
     1  C    0.000000
     2  H    1.092915   0.000000
     3  H    1.094271   1.821436   0.000000
     4  H    1.094272   1.821435   1.811984   0.000000
     5  C    1.829493   2.476405   2.327829   2.327831   0.000000
     6  O    2.533944   3.451147   2.715701   2.715705   1.239552
     7  N    3.038555   3.281314   3.604722   3.604723   1.472004
     8  H    3.273920   3.171319   3.929841   3.929841   2.165012
     9  C    4.498608   4.866794   4.944798   4.944800   2.717367
    10  H    4.718271   5.207650   4.926678   5.242476   2.943684
    11  H    4.718270   5.207651   5.242470   4.926679   2.943682
    12  C    5.965044   6.126334   6.463420   6.463420   4.293602
    13  O    6.116234   6.055717   6.688033   6.688033   4.661030
    14  N    7.234622   7.496280   7.670785   7.670784   5.474969
    15  H    7.245860   7.649648   7.613332   7.613331   5.428568
    16  C    8.885696   9.077453   9.333841   9.333841   7.153771
    17  H    9.353696   9.591377   9.690771   9.860031   7.602731
    18  H    9.015174   9.075704   9.514038   9.514032   7.377256
    19  H    9.353703   9.591389   9.860033   9.690778   7.602735
                    6          7          8          9         10
     6  O    0.000000
     7  N    2.309246   0.000000
     8  H    3.218410   1.012462   0.000000
     9  C    2.931648   1.604316   2.239542   0.000000
    10  H    2.876006   2.179673   2.915943   1.097430   0.000000
    11  H    2.876001   2.179674   2.915947   1.097430   1.772289
    12  C    4.646351   2.926633   3.037889   1.718703   2.285904
    13  O    5.285377   3.191345   2.890375   2.542662   3.214486
    14  N    5.581955   4.232242   4.475025   2.758951   2.982733
    15  H    5.307652   4.377169   4.828797   2.783084   2.780176
    16  C    7.286248   5.856865   5.967294   4.447013   4.636778
    17  H    7.653299   6.364579   6.534121   4.915999   4.867228
    18  H    7.682837   5.983856   5.908030   4.759554   5.077919
    19  H    7.653296   6.364588   6.534137   4.916003   5.189078
                   11         12         13         14         15
    11  H    0.000000
    12  C    2.285906   0.000000
    13  O    3.214491   1.233034   0.000000
    14  N    2.982730   1.463950   2.361524   0.000000
    15  H    2.780168   2.086758   3.203483   1.014537   0.000000
    16  C    4.636777   2.951130   3.369395   1.704675   2.254593
    17  H    5.189083   3.554065   4.049148   2.266963   2.554257
    18  H    5.077911   3.084953   3.079182   2.267448   3.087056
    19  H    4.867230   3.554076   4.049173   2.266960   2.554234
                   16         17         18         19
    16  C    0.000000
    17  H    1.094227   0.000000
    18  H    1.091402   1.814793   0.000000
    19  H    1.094226   1.826248   1.814792   0.000000
 Stoichiometry    C5H10N2O2
 Framework group  C1[X(C5H10N2O2)]
 Deg. of freedom    51
 Full point group                 C1      NOp   1
 Largest Abelian subgroup         C1      NOp   1
 Largest concise Abelian subgroup C1      NOp   1
                         Standard orientation:                         
 ---------------------------------------------------------------------
 Center     Atomic      Atomic             Coordinates (Angstroms)
 Number     Number       Type             X           Y           Z
 ---------------------------------------------------------------------
      1          6           0       -4.333547    0.559506   -0.000007
      2          1           0       -4.352814    1.652251   -0.000077
      3          1           0       -4.770139    0.128167   -0.905967
      4          1           0       -4.770127    0.128286    0.906017
      5          6           0       -2.642523   -0.138694    0.000026
      6          8           0       -2.699222   -1.376948    0.000104
      7          7           0       -1.296702    0.457596   -0.000021
      8          1           0       -1.187081    1.464106   -0.000087
      9          6           0        0.062804   -0.394210    0.000022
     10          1           0        0.016015   -1.039949   -0.886084
     11          1           0        0.016025   -1.039845    0.886205
     12          6           0        1.626637    0.318787   -0.000030
     13          8           0        1.702031    1.549514   -0.000111
     14          7           0        2.818336   -0.531510    0.000018
     15          1           0        2.606401   -1.523663    0.000086
     16          6           0        4.509096   -0.314141   -0.000007
     17          1           0        4.876847   -0.791973   -0.913116
     18          1           0        4.679309    0.763906   -0.000049
     19          1           0        4.876861   -0.791904    0.913132
 ---------------------------------------------------------------------
 Rotational constants (GHZ):      5.0666389      0.4901587      0.4508438
 Leave Link  202 at Wed Sep  3 14:23:37 2025, MaxMem=  8053063680 cpu:         0.2
 (Enter /nexus/posix0/bmm/home/sucerqdl/sw/g09/l301.exe)
 Standard basis: 6-31+G (6D, 7F)
 Ernie: Thresh=  0.10000D-02 Tol=  0.10000D-05 Strict=F.
 There are   137 symmetry adapted cartesian basis functions of A   symmetry.
 There are   137 symmetry adapted basis functions of A   symmetry.
   137 basis functions,   274 primitive gaussians,   137 cartesian basis functions
    35 alpha electrons       35 beta electrons
       nuclear repulsion energy       406.5182460076 Hartrees.
 IExCor= 3226 DFT=T Ex+Corr=BMK ExCW=0 ScaHFX=  0.420000
 ScaDFX=  1.000000  1.000000  1.000000  1.000000 ScalE2=  1.000000  1.000000
 IRadAn=      0 IRanWt=     -1 IRanGd=            0 ICorTp=0 IEmpDi=  4
 NAtoms=   19 NActive=   19 NUniq=   19 SFac= 1.00D+00 NAtFMM=   60 NAOKFM=F Big=F
 Integral buffers will be    131072 words long.
 Raffenetti 2 integral format.
 Two-electron integral symmetry is turned on.
 Leave Link  301 at Wed Sep  3 14:23:37 2025, MaxMem=  8053063680 cpu:         1.1
 (Enter /nexus/posix0/bmm/home/sucerqdl/sw/g09/l302.exe)
 NPDir=0 NMtPBC=     1 NCelOv=     1 NCel=       1 NClECP=     1 NCelD=      1
         NCelK=      1 NCelE2=     1 NClLst=     1 CellRange=     0.0.
 One-electron integrals computed using PRISM.
 NBasis=   137 RedAO= T EigKep=  4.70D-05  NBF=   137
 NBsUse=   137 1.00D-06 EigRej= -1.00D+00 NBFU=   137
 Precomputing XC quadrature grid using
 IXCGrd= 4 IRadAn=           0 IRanWt=          -1 IRanGd=           0 AccXCQ= 0.00D+00.
 Generated NRdTot=       0 NPtTot=           0 NUsed=           0 NTot=          32
 NSgBfM=   136   136   136   136   136 MxSgAt=    19 MxSgA2=    19.
 Leave Link  302 at Wed Sep  3 14:23:37 2025, MaxMem=  8053063680 cpu:         2.8
 (Enter /nexus/posix0/bmm/home/sucerqdl/sw/g09/l303.exe)
 DipDrv:  MaxL=1.
 Leave Link  303 at Wed Sep  3 14:23:37 2025, MaxMem=  8053063680 cpu:         0.7
 (Enter /nexus/posix0/bmm/home/sucerqdl/sw/g09/l401.exe)
 ExpMin= 4.38D-02 ExpMax= 5.48D+03 ExpMxC= 8.25D+02 IAcc=2 IRadAn=         4 AccDes= 0.00D+00
 Harris functional with IExCor= 1009 and IRadAn=       4 diagonalized for initial guess.
 HarFok:  IExCor= 1009 AccDes= 0.00D+00 IRadAn=         4 IDoV= 1 UseB2=F ITyADJ=14
 ICtDFT=  3500011 ScaDFX=  1.000000  1.000000  1.000000  1.000000
 FoFCou: FMM=F IPFlag=           0 FMFlag=      100000 FMFlg1=           0
         NFxFlg=           0 DoJE=T BraDBF=F KetDBF=T FulRan=T
         wScrn=  0.000000 ICntrl=     500 IOpCl=  0 I1Cent=   200000004 NGrid=           0
         NMat0=    1 NMatS0=      1 NMatT0=    0 NMatD0=    1 NMtDS0=    0 NMtDT0=    0
 Petite list used in FoFCou.
 Harris En= -455.876667024874    
 JPrj=0 DoOrth=F DoCkMO=F.
 Leave Link  401 at Wed Sep  3 14:23:37 2025, MaxMem=  8053063680 cpu:         4.0
 (Enter /nexus/posix0/bmm/home/sucerqdl/sw/g09/l502.exe)
 Closed shell SCF:
 Using DIIS extrapolation, IDIIS=  1040.
 Integral symmetry usage will be decided dynamically.
 Keep R1 ints in memory in canonical form, NReq=46076400.
 IVT=       78102 IEndB=       78102 NGot=  8053063680 MDV=  8008301248
 LenX=  8008301248 LenY=  8008282038
 Requested convergence on RMS density matrix=1.00D-08 within 128 cycles.
 Requested convergence on MAX density matrix=1.00D-06.
 Requested convergence on             energy=1.00D-06.
 No special actions if energy rises.
 FoFCou: FMM=F IPFlag=           0 FMFlag=           0 FMFlg1=           0
         NFxFlg=           0 DoJE=F BraDBF=F KetDBF=F FulRan=T
         wScrn=  0.000000 ICntrl=     600 IOpCl=  0 I1Cent=           0 NGrid=           0
         NMat0=    1 NMatS0=   9453 NMatT0=    0 NMatD0=    1 NMtDS0=    0 NMtDT0=    0
 Symmetry not used in FoFCou.

 Cycle   1  Pass 1  IDiag  1:
 E= -455.779854958306    
 DIIS: error= 3.83D-02 at cycle   1 NSaved=   1.
 NSaved= 1 IEnMin= 1 EnMin= -455.779854958306     IErMin= 1 ErrMin= 3.83D-02
 ErrMax= 3.83D-02  0.00D+00 EMaxC= 1.00D-01 BMatC= 2.73D-01 BMatP= 2.73D-01
 IDIUse=3 WtCom= 6.17D-01 WtEn= 3.83D-01
 Coeff-Com:  0.100D+01
 Coeff-En:   0.100D+01
 Coeff:      0.100D+01
 Gap=     0.309 Goal=   None    Shift=    0.000
 GapD=    0.309 DampG=1.000 DampE=0.500 DampFc=0.5000 IDamp=-1.
 Damping current iteration by 5.00D-01
 RMSDP=2.19D-02 MaxDP=9.51D-01              OVMax= 2.84D-01

 Cycle   2  Pass 1  IDiag  1:
 E= -455.826324524764     Delta-E=       -0.046469566458 Rises=F Damp=T
 DIIS: error= 2.18D-02 at cycle   2 NSaved=   2.
 NSaved= 2 IEnMin= 2 EnMin= -455.826324524764     IErMin= 2 ErrMin= 2.18D-02
 ErrMax= 2.18D-02  0.00D+00 EMaxC= 1.00D-01 BMatC= 5.36D-02 BMatP= 2.73D-01
 IDIUse=3 WtCom= 7.82D-01 WtEn= 2.18D-01
 Coeff-Com:  0.270D+00 0.730D+00
 Coeff-En:   0.406D+00 0.594D+00
 Coeff:      0.300D+00 0.700D+00
 Gap=     0.311 Goal=   None    Shift=    0.000
 RMSDP=9.28D-03 MaxDP=5.19D-01 DE=-4.65D-02 OVMax= 1.60D-01

 Cycle   3  Pass 1  IDiag  1:
 E= -456.006674971622     Delta-E=       -0.180350446857 Rises=F Damp=F
 DIIS: error= 1.22D-02 at cycle   3 NSaved=   3.
 NSaved= 3 IEnMin= 3 EnMin= -456.006674971622     IErMin= 3 ErrMin= 1.22D-02
 ErrMax= 1.22D-02  0.00D+00 EMaxC= 1.00D-01 BMatC= 1.55D-02 BMatP= 5.36D-02
 IDIUse=3 WtCom= 8.78D-01 WtEn= 1.22D-01
 Coeff-Com:  0.113D+00 0.356D+00 0.531D+00
 Coeff-En:   0.000D+00 0.000D+00 0.100D+01
 Coeff:      0.994D-01 0.312D+00 0.588D+00
 Gap=     0.303 Goal=   None    Shift=    0.000
 RMSDP=1.38D-03 MaxDP=2.61D-02 DE=-1.80D-01 OVMax= 4.19D-02

 Cycle   4  Pass 1  IDiag  1:
 E= -456.019586063332     Delta-E=       -0.012911091710 Rises=F Damp=F
 DIIS: error= 4.43D-03 at cycle   4 NSaved=   4.
 NSaved= 4 IEnMin= 4 EnMin= -456.019586063332     IErMin= 4 ErrMin= 4.43D-03
 ErrMax= 4.43D-03  0.00D+00 EMaxC= 1.00D-01 BMatC= 2.51D-03 BMatP= 1.55D-02
 IDIUse=3 WtCom= 9.56D-01 WtEn= 4.43D-02
 Coeff-Com:  0.241D-01 0.466D-01 0.291D+00 0.638D+00
 Coeff-En:   0.000D+00 0.000D+00 0.844D-01 0.916D+00
 Coeff:      0.231D-01 0.446D-01 0.282D+00 0.650D+00
 Gap=     0.300 Goal=   None    Shift=    0.000
 RMSDP=5.57D-04 MaxDP=1.60D-02 DE=-1.29D-02 OVMax= 1.23D-02

 Cycle   5  Pass 1  IDiag  1:
 E= -456.021573797988     Delta-E=       -0.001987734656 Rises=F Damp=F
 DIIS: error= 1.23D-03 at cycle   5 NSaved=   5.
 NSaved= 5 IEnMin= 5 EnMin= -456.021573797988     IErMin= 5 ErrMin= 1.23D-03
 ErrMax= 1.23D-03  0.00D+00 EMaxC= 1.00D-01 BMatC= 1.96D-04 BMatP= 2.51D-03
 IDIUse=3 WtCom= 9.88D-01 WtEn= 1.23D-02
 Coeff-Com:  0.341D-02-0.144D-01 0.894D-01 0.325D+00 0.596D+00
 Coeff-En:   0.000D+00 0.000D+00 0.000D+00 0.000D+00 0.100D+01
 Coeff:      0.337D-02-0.142D-01 0.883D-01 0.321D+00 0.601D+00
 Gap=     0.300 Goal=   None    Shift=    0.000
 RMSDP=2.17D-04 MaxDP=1.08D-02 DE=-1.99D-03 OVMax= 3.99D-03

 Cycle   6  Pass 1  IDiag  1:
 E= -456.021760067911     Delta-E=       -0.000186269923 Rises=F Damp=F
 DIIS: error= 2.95D-04 at cycle   6 NSaved=   6.
 NSaved= 6 IEnMin= 6 EnMin= -456.021760067911     IErMin= 6 ErrMin= 2.95D-04
 ErrMax= 2.95D-04  0.00D+00 EMaxC= 1.00D-01 BMatC= 1.33D-05 BMatP= 1.96D-04
 IDIUse=3 WtCom= 9.97D-01 WtEn= 2.95D-03
 Coeff-Com:  0.170D-02-0.103D-01 0.291D-01 0.108D+00 0.274D+00 0.598D+00
 Coeff-En:   0.000D+00 0.000D+00 0.000D+00 0.000D+00 0.000D+00 0.100D+01
 Coeff:      0.169D-02-0.103D-01 0.290D-01 0.108D+00 0.273D+00 0.599D+00
 Gap=     0.299 Goal=   None    Shift=    0.000
 RMSDP=6.91D-05 MaxDP=3.25D-03 DE=-1.86D-04 OVMax= 6.76D-04

 Cycle   7  Pass 1  IDiag  1:
 E= -456.021771465308     Delta-E=       -0.000011397398 Rises=F Damp=F
 DIIS: error= 1.17D-04 at cycle   7 NSaved=   7.
 NSaved= 7 IEnMin= 7 EnMin= -456.021771465308     IErMin= 7 ErrMin= 1.17D-04
 ErrMax= 1.17D-04  0.00D+00 EMaxC= 1.00D-01 BMatC= 1.71D-06 BMatP= 1.33D-05
 IDIUse=3 WtCom= 9.99D-01 WtEn= 1.17D-03
 Coeff-Com:  0.819D-03-0.223D-02-0.394D-02-0.232D-01-0.168D-02 0.215D+00
 Coeff-Com:  0.816D+00
 Coeff-En:   0.000D+00 0.000D+00 0.000D+00 0.000D+00 0.000D+00 0.000D+00
 Coeff-En:   0.100D+01
 Coeff:      0.818D-03-0.223D-02-0.394D-02-0.232D-01-0.168D-02 0.214D+00
 Coeff:      0.816D+00
 Gap=     0.299 Goal=   None    Shift=    0.000
 RMSDP=3.16D-05 MaxDP=9.75D-04 DE=-1.14D-05 OVMax= 5.14D-04

 Cycle   8  Pass 1  IDiag  1:
 E= -456.021772943870     Delta-E=       -0.000001478562 Rises=F Damp=F
 DIIS: error= 6.85D-05 at cycle   8 NSaved=   8.
 NSaved= 8 IEnMin= 8 EnMin= -456.021772943870     IErMin= 8 ErrMin= 6.85D-05
 ErrMax= 6.85D-05  0.00D+00 EMaxC= 1.00D-01 BMatC= 3.08D-07 BMatP= 1.71D-06
 IDIUse=1 WtCom= 1.00D+00 WtEn= 0.00D+00
 Coeff-Com:  0.390D-03-0.541D-03-0.480D-02-0.240D-01-0.254D-01 0.686D-01
 Coeff-Com:  0.496D+00 0.490D+00
 Coeff:      0.390D-03-0.541D-03-0.480D-02-0.240D-01-0.254D-01 0.686D-01
 Coeff:      0.496D+00 0.490D+00
 Gap=     0.299 Goal=   None    Shift=    0.000
 RMSDP=1.34D-05 MaxDP=5.25D-04 DE=-1.48D-06 OVMax= 2.02D-04

 Cycle   9  Pass 1  IDiag  1:
 E= -456.021773188299     Delta-E=       -0.000000244428 Rises=F Damp=F
 DIIS: error= 1.76D-05 at cycle   9 NSaved=   9.
 NSaved= 9 IEnMin= 9 EnMin= -456.021773188299     IErMin= 9 ErrMin= 1.76D-05
 ErrMax= 1.76D-05  0.00D+00 EMaxC= 1.00D-01 BMatC= 2.77D-08 BMatP= 3.08D-07
 IDIUse=1 WtCom= 1.00D+00 WtEn= 0.00D+00
 Coeff-Com: -0.141D-04 0.225D-03-0.832D-03-0.431D-02-0.969D-02-0.289D-01
 Coeff-Com:  0.240D-01 0.240D+00 0.780D+00
 Coeff:     -0.141D-04 0.225D-03-0.832D-03-0.431D-02-0.969D-02-0.289D-01
 Coeff:      0.240D-01 0.240D+00 0.780D+00
 Gap=     0.299 Goal=   None    Shift=    0.000
 RMSDP=2.74D-06 MaxDP=5.57D-05 DE=-2.44D-07 OVMax= 7.48D-05

 Cycle  10  Pass 1  IDiag  1:
 E= -456.021773216514     Delta-E=       -0.000000028216 Rises=F Damp=F
 DIIS: error= 3.86D-06 at cycle  10 NSaved=  10.
 NSaved=10 IEnMin=10 EnMin= -456.021773216514     IErMin=10 ErrMin= 3.86D-06
 ErrMax= 3.86D-06  0.00D+00 EMaxC= 1.00D-01 BMatC= 2.01D-09 BMatP= 2.77D-08
 IDIUse=1 WtCom= 1.00D+00 WtEn= 0.00D+00
 Coeff-Com: -0.292D-04 0.142D-03-0.102D-03-0.711D-03-0.315D-02-0.180D-01
 Coeff-Com: -0.146D-01 0.829D-01 0.377D+00 0.576D+00
 Coeff:     -0.292D-04 0.142D-03-0.102D-03-0.711D-03-0.315D-02-0.180D-01
 Coeff:     -0.146D-01 0.829D-01 0.377D+00 0.576D+00
 Gap=     0.299 Goal=   None    Shift=    0.000
 RMSDP=7.97D-07 MaxDP=2.38D-05 DE=-2.82D-08 OVMax= 1.10D-05

 Cycle  11  Pass 1  IDiag  1:
 E= -456.021773218638     Delta-E=       -0.000000002124 Rises=F Damp=F
 DIIS: error= 9.03D-07 at cycle  11 NSaved=  11.
 NSaved=11 IEnMin=11 EnMin= -456.021773218638     IErMin=11 ErrMin= 9.03D-07
 ErrMax= 9.03D-07  0.00D+00 EMaxC= 1.00D-01 BMatC= 1.09D-10 BMatP= 2.01D-09
 IDIUse=1 WtCom= 1.00D+00 WtEn= 0.00D+00
 Coeff-Com: -0.932D-05 0.221D-04 0.738D-04 0.272D-03 0.196D-03-0.218D-02
 Coeff-Com: -0.722D-02-0.641D-02 0.249D-01 0.186D+00 0.805D+00
 Coeff:     -0.932D-05 0.221D-04 0.738D-04 0.272D-03 0.196D-03-0.218D-02
 Coeff:     -0.722D-02-0.641D-02 0.249D-01 0.186D+00 0.805D+00
 Gap=     0.299 Goal=   None    Shift=    0.000
 RMSDP=2.34D-07 MaxDP=7.96D-06 DE=-2.12D-09 OVMax= 5.49D-06

 Cycle  12  Pass 1  IDiag  1:
 E= -456.021773218751     Delta-E=       -0.000000000113 Rises=F Damp=F
 DIIS: error= 3.17D-07 at cycle  12 NSaved=  12.
 NSaved=12 IEnMin=12 EnMin= -456.021773218751     IErMin=12 ErrMin= 3.17D-07
 ErrMax= 3.17D-07  0.00D+00 EMaxC= 1.00D-01 BMatC= 2.31D-11 BMatP= 1.09D-10
 IDIUse=1 WtCom= 1.00D+00 WtEn= 0.00D+00
 Coeff-Com: -0.299D-05 0.299D-05 0.439D-04 0.173D-03 0.304D-03 0.157D-03
 Coeff-Com: -0.284D-02-0.885D-02-0.148D-01 0.567D-01 0.419D+00 0.550D+00
 Coeff:     -0.299D-05 0.299D-05 0.439D-04 0.173D-03 0.304D-03 0.157D-03
 Coeff:     -0.284D-02-0.885D-02-0.148D-01 0.567D-01 0.419D+00 0.550D+00
 Gap=     0.299 Goal=   None    Shift=    0.000
 RMSDP=5.74D-08 MaxDP=1.43D-06 DE=-1.13D-10 OVMax= 9.41D-07

 Cycle  13  Pass 1  IDiag  1:
 E= -456.021773218782     Delta-E=       -0.000000000032 Rises=F Damp=F
 DIIS: error= 6.76D-08 at cycle  13 NSaved=  13.
 NSaved=13 IEnMin=13 EnMin= -456.021773218782     IErMin=13 ErrMin= 6.76D-08
 ErrMax= 6.76D-08  0.00D+00 EMaxC= 1.00D-01 BMatC= 9.98D-13 BMatP= 2.31D-11
 IDIUse=1 WtCom= 1.00D+00 WtEn= 0.00D+00
 Coeff-Com:  0.110D-06-0.141D-05 0.744D-05 0.237D-04 0.833D-04 0.328D-03
 Coeff-Com: -0.200D-03-0.173D-02-0.792D-02-0.398D-02 0.354D-01 0.172D+00
 Coeff-Com:  0.806D+00
 Coeff:      0.110D-06-0.141D-05 0.744D-05 0.237D-04 0.833D-04 0.328D-03
 Coeff:     -0.200D-03-0.173D-02-0.792D-02-0.398D-02 0.354D-01 0.172D+00
 Coeff:      0.806D+00
 Gap=     0.299 Goal=   None    Shift=    0.000
 RMSDP=2.92D-08 MaxDP=1.08D-06 DE=-3.16D-11 OVMax= 2.70D-07

 Cycle  14  Pass 1  IDiag  1:
 E= -456.021773218779     Delta-E=        0.000000000003 Rises=F Damp=F
 DIIS: error= 1.29D-08 at cycle  14 NSaved=  14.
 NSaved=14 IEnMin=13 EnMin= -456.021773218782     IErMin=14 ErrMin= 1.29D-08
 ErrMax= 1.29D-08  0.00D+00 EMaxC= 1.00D-01 BMatC= 4.04D-14 BMatP= 9.98D-13
 IDIUse=1 WtCom= 1.00D+00 WtEn= 0.00D+00
 Coeff-Com:  0.150D-06-0.485D-06 0.293D-06-0.147D-05 0.103D-04 0.838D-04
 Coeff-Com:  0.639D-04-0.149D-03-0.141D-02-0.359D-02-0.876D-02 0.221D-01
 Coeff-Com:  0.223D+00 0.769D+00
 Coeff:      0.150D-06-0.485D-06 0.293D-06-0.147D-05 0.103D-04 0.838D-04
 Coeff:      0.639D-04-0.149D-03-0.141D-02-0.359D-02-0.876D-02 0.221D-01
 Coeff:      0.223D+00 0.769D+00
 Gap=     0.299 Goal=   None    Shift=    0.000
 RMSDP=4.07D-09 MaxDP=1.01D-07 DE= 3.18D-12 OVMax= 6.63D-08

 SCF Done:  E(RBMK) =  -456.021773219     A.U. after   14 cycles
            NFock= 14  Conv=0.41D-08     -V/T= 2.0089
 KE= 4.519912822552D+02 PE=-1.877187278668D+03 EE= 5.626559771862D+02
 Leave Link  502 at Wed Sep  3 14:23:44 2025, MaxMem=  8053063680 cpu:        86.2
 (Enter /nexus/posix0/bmm/home/sucerqdl/sw/g09/l801.exe)
 DoSCS=F DFT=T ScalE2(SS,OS)=  1.000000  1.000000
 Range of M.O.s used for correlation:     1   137
 NBasis=   137 NAE=    35 NBE=    35 NFC=     0 NFV=     0
 NROrb=    137 NOA=    35 NOB=    35 NVA=   102 NVB=   102

 **** Warning!!: The largest alpha MO coefficient is  0.45518790D+02

 Leave Link  801 at Wed Sep  3 14:23:44 2025, MaxMem=  8053063680 cpu:         0.3
 (Enter /nexus/posix0/bmm/home/sucerqdl/sw/g09/l1101.exe)
 Using compressed storage, NAtomX=    19.
 Will process     20 centers per pass.
 Leave Link 1101 at Wed Sep  3 14:23:44 2025, MaxMem=  8053063680 cpu:         1.6
 (Enter /nexus/posix0/bmm/home/sucerqdl/sw/g09/l1102.exe)
 Symmetrizing basis deriv contribution to polar:
 IMax=3 JMax=2 DiffMx= 0.00D+00
 Leave Link 1102 at Wed Sep  3 14:23:44 2025, MaxMem=  8053063680 cpu:         0.4
 (Enter /nexus/posix0/bmm/home/sucerqdl/sw/g09/l1110.exe)
 Forming Gx(P) for the SCF density, NAtomX=    19.
 Integral derivatives from FoFJK, PRISM(SPDF).
 Do as many integral derivatives as possible in FoFJK.
 G2DrvN: MDV=    8053063424.
 G2DrvN: will do    20 centers at a time, making    1 passes.
 Calling FoFCou, ICntrl=  3107 FMM=F I1Cent=   0 AccDes= 0.00D+00.
 FoFJK:  IHMeth= 1 ICntrl=    3107 DoSepK=F KAlg= 0 I1Cent=   0 FoldK=F
 IRaf=         0 NMat=   1 IRICut=       1 DoRegI=T DoRafI=F ISym2E= 0.
 FoFCou: FMM=F IPFlag=           0 FMFlag=      100000 FMFlg1=           0
         NFxFlg=           0 DoJE=F BraDBF=F KetDBF=F FulRan=T
         wScrn=  0.000000 ICntrl=    3107 IOpCl=  0 I1Cent=           0 NGrid=           0
         NMat0=    1 NMatS0=      1 NMatT0=    0 NMatD0=    1 NMtDS0=    0 NMtDT0=    0
 Symmetry not used in FoFCou.
 End of G2Drv F.D. properties file   721 does not exist.
 End of G2Drv F.D. properties file   722 does not exist.
 End of G2Drv F.D. properties file   788 does not exist.
 Leave Link 1110 at Wed Sep  3 14:23:52 2025, MaxMem=  8053063680 cpu:       130.4
 (Enter /nexus/posix0/bmm/home/sucerqdl/sw/g09/l1002.exe)
 Minotr:  Closed shell wavefunction.
          IDoAtm=1111111111111111111
          Direct CPHF calculation.
          Differentiating once with respect to nuclear coordinates.
          Requested convergence is 1.0D-08 RMS, and 1.0D-07 maximum.
          Secondary convergence is 1.0D-12 RMS, and 1.0D-12 maximum.
          NewPWx=T KeepS1=F KeepF1=F KeepIn=T MapXYZ=F SortEE=F KeepMc=T.
          MDV=    8053063349 using IRadAn=       2.
 Generate precomputed XC quadrature information.
 Keep R1 ints in memory in canonical form, NReq=46004215.
 FoFCou: FMM=F IPFlag=           0 FMFlag=           0 FMFlg1=           0
         NFxFlg=           0 DoJE=F BraDBF=F KetDBF=F FulRan=T
         wScrn=  0.000000 ICntrl=     600 IOpCl=  0 I1Cent=           0 NGrid=           0
         NMat0=    1 NMatS0=   9453 NMatT0=    0 NMatD0=    1 NMtDS0=    0 NMtDT0=    0
 Symmetry not used in FoFCou.
          Solving linear equations simultaneously, MaxMat=       0.
          There are    60 degrees of freedom in the 1st order CPHF.  IDoFFX=6 NUNeed=     0.
     54 vectors produced by pass  0 Test12= 5.95D-15 1.67D-09 XBig12= 1.38D-01 9.41D-02.
 AX will form    54 AO Fock derivatives at one time.
     54 vectors produced by pass  1 Test12= 5.95D-15 1.67D-09 XBig12= 7.06D-03 2.55D-02.
     54 vectors produced by pass  2 Test12= 5.95D-15 1.67D-09 XBig12= 6.43D-05 1.55D-03.
     54 vectors produced by pass  3 Test12= 5.95D-15 1.67D-09 XBig12= 2.47D-07 7.54D-05.
     54 vectors produced by pass  4 Test12= 5.95D-15 1.67D-09 XBig12= 6.77D-10 3.53D-06.
     54 vectors produced by pass  5 Test12= 5.95D-15 1.67D-09 XBig12= 1.47D-12 1.67D-07.
     23 vectors produced by pass  6 Test12= 5.95D-15 1.67D-09 XBig12= 4.53D-15 1.16D-08.
      2 vectors produced by pass  7 Test12= 5.95D-15 1.67D-09 XBig12= 1.24D-16 1.97D-09.
      1 vectors produced by pass  8 Test12= 5.95D-15 1.67D-09 XBig12= 1.33D-16 1.71D-09.
 InvSVY:  IOpt=1 It=  1 EMax= 5.55D-16
 Solved reduced A of dimension   350 with    60 vectors.
 End of Minotr F.D. properties file   721 does not exist.
 End of Minotr F.D. properties file   722 does not exist.
 End of Minotr F.D. properties file   788 does not exist.
 Leave Link 1002 at Wed Sep  3 14:24:01 2025, MaxMem=  8053063680 cpu:       129.8
 (Enter /nexus/posix0/bmm/home/sucerqdl/sw/g09/l601.exe)
 Copying SCF densities to generalized density rwf, IOpCl= 0 IROHF=0.

 **********************************************************************

            Population analysis using the SCF density.

 **********************************************************************

 Orbital symmetries:
       Occupied  (A) (A) (A) (A) (A) (A) (A) (A) (A) (A) (A) (A)
                 (A) (A) (A) (A) (A) (A) (A) (A) (A) (A) (A) (A)
                 (A) (A) (A) (A) (A) (A) (A) (A) (A) (A) (A)
       Virtual   (A) (A) (A) (A) (A) (A) (A) (A) (A) (A) (A) (A)
                 (A) (A) (A) (A) (A) (A) (A) (A) (A) (A) (A) (A)
                 (A) (A) (A) (A) (A) (A) (A) (A) (A) (A) (A) (A)
                 (A) (A) (A) (A) (A) (A) (A) (A) (A) (A) (A) (A)
                 (A) (A) (A) (A) (A) (A) (A) (A) (A) (A) (A) (A)
                 (A) (A) (A) (A) (A) (A) (A) (A) (A) (A) (A) (A)
                 (A) (A) (A) (A) (A) (A) (A) (A) (A) (A) (A) (A)
                 (A) (A) (A) (A) (A) (A) (A) (A) (A) (A) (A) (A)
                 (A) (A) (A) (A) (A) (A)
 The electronic state is 1-A.
 Alpha  occ. eigenvalues --  -19.54238 -19.52902 -14.72433 -14.71808 -10.63550
 Alpha  occ. eigenvalues --  -10.62254 -10.55437 -10.54895 -10.50871  -1.15023
 Alpha  occ. eigenvalues --   -1.13848  -0.96720  -0.96029  -0.80161  -0.78236
 Alpha  occ. eigenvalues --   -0.76388  -0.63079  -0.62389  -0.56380  -0.51601
 Alpha  occ. eigenvalues --   -0.51586  -0.50411  -0.50152  -0.48471  -0.48078
 Alpha  occ. eigenvalues --   -0.47912  -0.46161  -0.44086  -0.43963  -0.42542
 Alpha  occ. eigenvalues --   -0.41536  -0.31052  -0.30462  -0.29342  -0.29247
 Alpha virt. eigenvalues --    0.00694   0.03119   0.03505   0.03661   0.03818
 Alpha virt. eigenvalues --    0.06636   0.06894   0.07259   0.07875   0.08419
 Alpha virt. eigenvalues --    0.09153   0.10013   0.10937   0.11128   0.11654
 Alpha virt. eigenvalues --    0.11985   0.12853   0.13726   0.15202   0.16082
 Alpha virt. eigenvalues --    0.16235   0.16792   0.18011   0.18594   0.20378
 Alpha virt. eigenvalues --    0.20852   0.21837   0.22585   0.22885   0.23542
 Alpha virt. eigenvalues --    0.23738   0.24929   0.26686   0.27261   0.27474
 Alpha virt. eigenvalues --    0.27588   0.29108   0.29593   0.30997   0.31617
 Alpha virt. eigenvalues --    0.32029   0.33188   0.33603   0.35161   0.36168
 Alpha virt. eigenvalues --    0.36218   0.36573   0.38155   0.39643   0.40628
 Alpha virt. eigenvalues --    0.42280   0.44453   0.46309   0.46405   0.51883
 Alpha virt. eigenvalues --    0.55261   0.65839   0.68186   0.69759   0.69921
 Alpha virt. eigenvalues --    0.70633   0.73590   0.77526   0.78879   0.80817
 Alpha virt. eigenvalues --    0.82523   0.84369   0.86161   0.92057   0.93487
 Alpha virt. eigenvalues --    0.99010   1.00271   1.01360   1.01641   1.09893
 Alpha virt. eigenvalues --    1.11067   1.11429   1.12606   1.13260   1.14479
 Alpha virt. eigenvalues --    1.15764   1.18142   1.22283   1.22562   1.24965
 Alpha virt. eigenvalues --    1.28405   1.31880   1.33648   1.36066   1.36229
 Alpha virt. eigenvalues --    1.40773   1.42342   1.44994   1.48973   1.51175
 Alpha virt. eigenvalues --    1.52317   1.55454   1.57317   1.65069   1.81358
 Alpha virt. eigenvalues --    1.99246   2.08853
          Condensed to atoms (all electrons):
               1          2          3          4          5          6
     1  C    6.023330   0.339794   0.396251   0.396251  -0.111191  -0.130587
     2  H    0.339794   0.524199  -0.025927  -0.025927  -0.020920   0.006113
     3  H    0.396251  -0.025927   0.468831  -0.023165  -0.040890  -0.002404
     4  H    0.396251  -0.025927  -0.023165   0.468832  -0.040890  -0.002404
     5  C   -0.111191  -0.020920  -0.040890  -0.040890   5.469001   0.403240
     6  O   -0.130587   0.006113  -0.002404  -0.002404   0.403240   8.467666
     7  N   -0.172756   0.004357   0.000203   0.000203  -0.028982  -0.209568
     8  H    0.009551  -0.000284   0.000000   0.000000   0.020266   0.007111
     9  C   -0.092747   0.000592  -0.002466  -0.002466  -0.553521  -0.038919
    10  H   -0.001329   0.000000   0.000005  -0.000001   0.001990   0.000747
    11  H   -0.001329   0.000000  -0.000001   0.000005   0.001990   0.000747
    12  C    0.032663  -0.000149  -0.000175  -0.000175   0.278498   0.014528
    13  O   -0.001275  -0.000001   0.000000   0.000000   0.004518  -0.000155
    14  N   -0.000460   0.000002   0.000000   0.000000   0.003802  -0.001082
    15  H    0.000061   0.000000   0.000000   0.000000   0.001902   0.000044
    16  C    0.000073   0.000000   0.000000   0.000000   0.001949  -0.000045
    17  H    0.000000   0.000000   0.000000   0.000000   0.000016   0.000000
    18  H    0.000000   0.000000   0.000000   0.000000  -0.000017   0.000000
    19  H    0.000000   0.000000   0.000000   0.000000   0.000016   0.000000
               7          8          9         10         11         12
     1  C   -0.172756   0.009551  -0.092747  -0.001329  -0.001329   0.032663
     2  H    0.004357  -0.000284   0.000592   0.000000   0.000000  -0.000149
     3  H    0.000203   0.000000  -0.002466   0.000005  -0.000001  -0.000175
     4  H    0.000203   0.000000  -0.002466  -0.000001   0.000005  -0.000175
     5  C   -0.028982   0.020266  -0.553521   0.001990   0.001990   0.278498
     6  O   -0.209568   0.007111  -0.038919   0.000747   0.000747   0.014528
     7  N    7.556911   0.257749   0.246467  -0.046340  -0.046339  -0.024221
     8  H    0.257749   0.330769  -0.041897   0.001580   0.001580   0.010860
     9  C    0.246467  -0.041897   9.439818   0.337205   0.337203  -2.488832
    10  H   -0.046340   0.001580   0.337205   0.500107  -0.036990  -0.006679
    11  H   -0.046339   0.001580   0.337203  -0.036990   0.500108  -0.006678
    12  C   -0.024221   0.010860  -2.488832  -0.006679  -0.006678   6.941521
    13  O    0.021807   0.002122   0.000474   0.001328   0.001328   0.254549
    14  N    0.011055   0.001336  -0.581579   0.012932   0.012932   0.458464
    15  H   -0.000121  -0.000002   0.056999  -0.000574  -0.000574  -0.050564
    16  C    0.002144   0.000265  -0.121453   0.001586   0.001586  -0.002667
    17  H   -0.000009   0.000000   0.003327   0.000004  -0.000001  -0.001989
    18  H   -0.000006   0.000000  -0.007851  -0.000001  -0.000001  -0.008102
    19  H   -0.000009   0.000000   0.003328  -0.000001   0.000004  -0.001989
              13         14         15         16         17         18
     1  C   -0.001275  -0.000460   0.000061   0.000073   0.000000   0.000000
     2  H   -0.000001   0.000002   0.000000   0.000000   0.000000   0.000000
     3  H    0.000000   0.000000   0.000000   0.000000   0.000000   0.000000
     4  H    0.000000   0.000000   0.000000   0.000000   0.000000   0.000000
     5  C    0.004518   0.003802   0.001902   0.001949   0.000016  -0.000017
     6  O   -0.000155  -0.001082   0.000044  -0.000045   0.000000   0.000000
     7  N    0.021807   0.011055  -0.000121   0.002144  -0.000009  -0.000006
     8  H    0.002122   0.001336  -0.000002   0.000265   0.000000   0.000000
     9  C    0.000474  -0.581579   0.056999  -0.121453   0.003327  -0.007851
    10  H    0.001328   0.012932  -0.000574   0.001586   0.000004  -0.000001
    11  H    0.001328   0.012932  -0.000574   0.001586  -0.000001  -0.000001
    12  C    0.254549   0.458464  -0.050564  -0.002667  -0.001989  -0.008102
    13  O    8.452751  -0.199471   0.010316  -0.020583  -0.000081   0.004435
    14  N   -0.199471   7.494119   0.256801   0.185028  -0.035520  -0.032950
    15  H    0.010316   0.256801   0.408512  -0.028022  -0.000598   0.001978
    16  C   -0.020583   0.185028  -0.028022   5.219922   0.379836   0.399914
    17  H   -0.000081  -0.035520  -0.000598   0.379836   0.497776  -0.023044
    18  H    0.004435  -0.032950   0.001978   0.399914  -0.023044   0.447569
    19  H   -0.000081  -0.035519  -0.000598   0.379836  -0.033422  -0.023044
              19
     1  C    0.000000
     2  H    0.000000
     3  H    0.000000
     4  H    0.000000
     5  C    0.000016
     6  O    0.000000
     7  N   -0.000009
     8  H    0.000000
     9  C    0.003328
    10  H   -0.000001
    11  H    0.000004
    12  C   -0.001989
    13  O   -0.000081
    14  N   -0.035519
    15  H   -0.000598
    16  C    0.379836
    17  H   -0.033422
    18  H   -0.023044
    19  H    0.497776
 Mulliken charges:
               1
     1  C   -0.686302
     2  H    0.198150
     3  H    0.229737
     4  H    0.229737
     5  C    0.609223
     6  O   -0.515032
     7  N   -0.572544
     8  H    0.398993
     9  C   -0.493682
    10  H    0.234430
    11  H    0.234429
    12  C    0.601137
    13  O   -0.531983
    14  N   -0.549890
    15  H    0.344437
    16  C   -0.399368
    17  H    0.213703
    18  H    0.241121
    19  H    0.213702
 Sum of Mulliken charges =   0.00000
 Mulliken charges with hydrogens summed into heavy atoms:
               1
     1  C   -0.028678
     5  C    0.609223
     6  O   -0.515032
     7  N   -0.173550
     9  C   -0.024824
    12  C    0.601137
    13  O   -0.531983
    14  N   -0.205453
    16  C    0.269159
 APT charges:
               1
     1  C   -1.598235
     2  H    0.413629
     3  H    0.616160
     4  H    0.616160
     5  C    0.411687
     6  O   -0.432121
     7  N   -0.780966
     8  H    0.575150
     9  C   -0.790489
    10  H    0.433065
    11  H    0.433064
    12  C    0.233611
    13  O   -0.493608
    14  N   -0.249128
    15  H    0.501487
    16  C   -1.631364
    17  H    0.638271
    18  H    0.465351
    19  H    0.638276
 Sum of APT charges =   0.00000
 APT charges with hydrogens summed into heavy atoms:
               1
     1  C    0.047715
     5  C    0.411687
     6  O   -0.432121
     7  N   -0.205816
     9  C    0.075639
    12  C    0.233611
    13  O   -0.493608
    14  N    0.252359
    16  C    0.110534
 Electronic spatial extent (au):  <R**2>=           2402.9575
 Charge=              0.0000 electrons
 Dipole moment (field-independent basis, Debye):
    X=              2.6991    Y=             -0.6572    Z=              0.0000  Tot=              2.7780
 Quadrupole moment (field-independent basis, Debye-Ang):
   XX=            -33.4942   YY=            -61.6364   ZZ=            -55.7873
   XY=            -18.8653   XZ=              0.0011   YZ=              0.0005
 Traceless Quadrupole moment (field-independent basis, Debye-Ang):
   XX=             16.8118   YY=            -11.3304   ZZ=             -5.4813
   XY=            -18.8653   XZ=              0.0011   YZ=              0.0005
 Octapole moment (field-independent basis, Debye-Ang**2):
  XXX=             65.0325  YYY=             -1.2452  ZZZ=              0.0004  XYY=              9.9273
  XXY=              9.3099  XXZ=             -0.0009  XZZ=             -0.9325  YZZ=             -2.3665
  YYZ=             -0.0002  XYZ=             -0.0008
 Hexadecapole moment (field-independent basis, Debye-Ang**3):
 XXXX=          -2129.3909 YYYY=           -303.2248 ZZZZ=            -75.8640 XXXY=           -126.3066
 XXXZ=              0.0127 YYYX=            -56.1769 YYYZ=              0.0079 ZZZX=              0.0071
 ZZZY=              0.0069 XXYY=           -547.4683 XXZZ=           -467.7142 YYZZ=            -61.2687
 XXYZ=              0.0058 YYXZ=              0.0075 ZZXY=              3.9707
 N-N= 4.065182460076D+02 E-N=-1.877187278422D+03  KE= 4.519912822552D+02
  Exact polarizability:   0.000   0.000   0.000   0.000   0.000   0.000
 Approx polarizability: 125.476  -3.801 115.086   0.000  -0.003  64.269
 No NMR shielding tensors so no spin-rotation constants.
 Leave Link  601 at Wed Sep  3 14:24:01 2025, MaxMem=  8053063680 cpu:         1.4
 (Enter /nexus/posix0/bmm/home/sucerqdl/sw/g09/l701.exe)
 Compute integral second derivatives.
 ... and contract with generalized density number  0.
 Leave Link  701 at Wed Sep  3 14:24:01 2025, MaxMem=  8053063680 cpu:         1.5
 (Enter /nexus/posix0/bmm/home/sucerqdl/sw/g09/l702.exe)
 L702 exits ... SP integral derivatives will be done elsewhere.
 Leave Link  702 at Wed Sep  3 14:24:01 2025, MaxMem=  8053063680 cpu:         0.3
 (Enter /nexus/posix0/bmm/home/sucerqdl/sw/g09/l703.exe)
 Compute integral second derivatives, UseDBF=F ICtDFT=           0.
 Integral derivatives from FoFJK, PRISM(SPDF).
 Calling FoFJK, ICntrl=    100147 FMM=F ISym2X=0 I1Cent= 0 IOpClX= 0 NMat=1 NMatS=1 NMatT=0.
 FoFJK:  IHMeth= 1 ICntrl=  100147 DoSepK=F KAlg= 0 I1Cent=   0 FoldK=F
 IRaf=         0 NMat=   1 IRICut=       1 DoRegI=T DoRafI=F ISym2E= 0.
 FoFCou: FMM=F IPFlag=           0 FMFlag=      100000 FMFlg1=         800
         NFxFlg=           0 DoJE=F BraDBF=F KetDBF=F FulRan=T
         wScrn=  0.000000 ICntrl=  100147 IOpCl=  0 I1Cent=           0 NGrid=           0
         NMat0=    1 NMatS0=      1 NMatT0=    0 NMatD0=    1 NMtDS0=    0 NMtDT0=    0
 Symmetry not used in FoFCou.
 Leave Link  703 at Wed Sep  3 14:24:08 2025, MaxMem=  8053063680 cpu:       101.4
 (Enter /nexus/posix0/bmm/home/sucerqdl/sw/g09/l716.exe)
 Dipole        = 1.06190621D+00-2.58558254D-01 1.17509545D-05
 Polarizability= 0.00000000D+00 0.00000000D+00 0.00000000D+00
                 0.00000000D+00 0.00000000D+00 0.00000000D+00
 ***** Axes restored to original set *****
 -------------------------------------------------------------------
 Center     Atomic                   Forces (Hartrees/Bohr)
 Number     Number              X              Y              Z
 -------------------------------------------------------------------
      1        6           0.072061658   -0.000620846    0.000000842
      2        1           0.000849065   -0.000225751   -0.000000054
      3        1           0.003064844    0.000400182    0.001054027
      4        1           0.003065193    0.000400333   -0.001054842
      5        6           0.008037075   -0.003096781    0.000000263
      6        8          -0.001740793    0.004943456   -0.000000372
      7        7          -0.001516129   -0.003288838    0.000000251
      8        1          -0.000198561    0.000174492   -0.000000025
      9        6          -0.002350640   -0.001016030    0.000000415
     10        1          -0.000382159    0.000953426   -0.000092484
     11        1          -0.000382263    0.000953624    0.000092063
     12        6           0.005129443    0.002540560   -0.000000330
     13        8           0.000283041   -0.004608009    0.000000366
     14        7          -0.004495530    0.003401673   -0.000000183
     15        1           0.000982762   -0.000228281    0.000000011
     16        6          -0.074146745   -0.001093723   -0.000000212
     17        1          -0.003571125    0.000294122    0.001198349
     18        1          -0.001118043   -0.000177526    0.000000032
     19        1          -0.003571095    0.000293918   -0.001198118
 -------------------------------------------------------------------
 Cartesian Forces:  Max     0.074146745 RMS     0.013863079
 FormGI is forming the generalized inverse of G from B-inverse, IUseBI=4.
 GSVD:  received Info=                   1 from GESDD.
 Leave Link  716 at Wed Sep  3 14:24:08 2025, MaxMem=  8053063680 cpu:         0.4
 (Enter /nexus/posix0/bmm/home/sucerqdl/sw/g09/l103.exe)

 GradGradGradGradGradGradGradGradGradGradGradGradGradGradGradGradGradGrad
 Berny optimization.
 Red2BG is reusing G-inverse.
 Internal  Forces:  Max     0.071680847 RMS     0.008699447
 Search for a local minimum.
 Step number   1 out of a maximum of   91
 All quantities printed in internal units (Hartrees-Bohrs-Radians)
 RMS Force = .17964D-02 SwitMx=.10000D-02 MixMth= 1
 Mixed Optimization -- RFO/linear search
 Second derivative matrix not updated -- analytic derivatives used.
 ITU=  0
     Eigenvalues ---    0.00040   0.00051   0.00177   0.00346   0.00681
     Eigenvalues ---    0.00714   0.02044   0.02921   0.02935   0.03992
     Eigenvalues ---    0.05045   0.05066   0.05754   0.05819   0.06182
     Eigenvalues ---    0.06375   0.06443   0.06872   0.10761   0.10914
     Eigenvalues ---    0.11546   0.11734   0.11894   0.12754   0.13222
     Eigenvalues ---    0.13709   0.14430   0.15240   0.15484   0.17161
     Eigenvalues ---    0.18876   0.19420   0.20169   0.22389   0.25079
     Eigenvalues ---    0.29834   0.33053   0.34539   0.35265   0.35953
     Eigenvalues ---    0.36141   0.36231   0.36312   0.36498   0.37008
     Eigenvalues ---    0.47705   0.48674   0.60894   0.75700   0.77890
     Eigenvalues --- 1000.000001000.000001000.000001000.000001000.00000
     Eigenvalues --- 1000.000001000.000001000.000001000.000001000.00000
     Eigenvalues --- 1000.000001000.000001000.000001000.000001000.00000
     Eigenvalues --- 1000.000001000.000001000.000001000.000001000.00000
     Eigenvalues --- 1000.000001000.000001000.000001000.000001000.00000
     Eigenvalues --- 1000.000001000.000001000.000001000.000001000.00000
     Eigenvalues --- 1000.00000
 RFO step:  Lambda=-1.63834160D-03 EMin= 3.95283370D-04
 Linear search not attempted -- first point.
 Iteration  1 RMS(Cart)=  0.02760812 RMS(Int)=  0.00069193
 Iteration  2 RMS(Cart)=  0.00054275 RMS(Int)=  0.00021113
 Iteration  3 RMS(Cart)=  0.00000064 RMS(Int)=  0.00021113
 Iteration  1 RMS(Cart)=  0.00000235 RMS(Int)=  0.00000055
 Iteration  2 RMS(Cart)=  0.00000030 RMS(Int)=  0.00000058
 ITry= 1 IFail=0 DXMaxC= 9.03D-02 DCOld= 1.00D+10 DXMaxT= 3.00D-01 DXLimC= 3.00D+00 Rises=F
 Variable       Old X    -DE/DX   Delta X   Delta X   Delta X     New X
                                 (Linear)    (Quad)   (Total)
    R1        2.06531  -0.00032   0.00000  -0.00297  -0.00297   2.06234
    R2        2.06787  -0.00214   0.00000  -0.00805  -0.00805   2.05982
    R3        2.06787  -0.00214   0.00000  -0.00806  -0.00806   2.05982
    R4        3.45724  -0.00706   0.00000   0.09766   0.09768   3.55492
    R5       16.79153  -0.07168   0.00000   0.00000   0.00000  16.79153
    R6        2.34241  -0.00503   0.00000  -0.00612  -0.00612   2.33629
    R7        2.78168  -0.01277   0.00000  -0.03161  -0.03160   2.75009
    R8        1.91328   0.00017   0.00000  -0.00011  -0.00011   1.91317
    R9        3.03172  -0.01128   0.00000  -0.02782  -0.02781   3.00391
   R10        2.07384  -0.00049   0.00000  -0.00105  -0.00105   2.07279
   R11        2.07384  -0.00049   0.00000  -0.00105  -0.00105   2.07279
   R12        3.24788  -0.00742   0.00000  -0.00850  -0.00848   3.23939
   R13        2.33010  -0.00461   0.00000  -0.00270  -0.00270   2.32740
   R14        2.76647  -0.01359   0.00000  -0.03493  -0.03492   2.73155
   R15        1.91720   0.00012   0.00000   0.00009   0.00009   1.91729
   R16        3.22137  -0.01061   0.00000  -0.00842  -0.00840   3.21297
   R17        2.06779  -0.00247   0.00000  -0.00788  -0.00788   2.05991
   R18        2.06245  -0.00024   0.00000  -0.00127  -0.00127   2.06118
   R19        2.06779  -0.00247   0.00000  -0.00788  -0.00788   2.05991
    A1        1.96821   0.00172   0.00000   0.02307   0.02277   1.99097
    A2        1.96820   0.00172   0.00000   0.02307   0.02277   1.99097
    A3        1.97999  -0.00017   0.00000   0.00020  -0.00005   1.97994
    A4        1.95085   0.00239   0.00000   0.02754   0.02626   1.97711
    A5        1.79093  -0.00327   0.00000  -0.04266  -0.04317   1.74776
    A6        1.79094  -0.00327   0.00000  -0.04266  -0.04317   1.74776
    A7        1.91660   0.00018   0.00000  -0.03074  -0.03074   1.88586
    A8        2.33295  -0.00381   0.00000   0.01705   0.01706   2.35002
    A9        2.03363   0.00364   0.00000   0.01369   0.01368   2.04731
   A10        2.09635   0.00218   0.00000   0.00009   0.00008   2.09644
   A11        2.16480  -0.00475   0.00000  -0.00622  -0.00621   2.15859
   A12        2.02203   0.00257   0.00000   0.00613   0.00613   2.02816
   A13        1.85070   0.00074   0.00000   0.00036   0.00035   1.85105
   A14        1.85070   0.00074   0.00000   0.00036   0.00035   1.85105
   A15        2.15410  -0.00395   0.00000  -0.00536  -0.00536   2.14874
   A16        1.87971   0.00024   0.00000   0.00624   0.00624   1.88595
   A17        1.85758   0.00130   0.00000   0.00005   0.00005   1.85762
   A18        1.85758   0.00130   0.00000   0.00006   0.00005   1.85763
   A19        2.05975   0.00326   0.00000   0.00184   0.00184   2.06159
   A20        2.09408  -0.00626   0.00000  -0.00874  -0.00874   2.08534
   A21        2.12935   0.00300   0.00000   0.00690   0.00689   2.13625
   A22        1.98009   0.00209   0.00000   0.00971   0.00971   1.98980
   A23        2.39399  -0.00227   0.00000   0.00139   0.00140   2.39539
   A24        1.90911   0.00017   0.00000  -0.01110  -0.01111   1.89800
   A25        1.85216  -0.00369   0.00000  -0.02340  -0.02359   1.82857
   A26        1.85525  -0.00059   0.00000  -0.00182  -0.00191   1.85335
   A27        1.85216  -0.00370   0.00000  -0.02341  -0.02360   1.82856
   A28        1.95940   0.00196   0.00000   0.01154   0.01143   1.97083
   A29        1.97442   0.00304   0.00000   0.01931   0.01895   1.99337
   A30        1.95940   0.00196   0.00000   0.01154   0.01143   1.97083
    D1       -3.14159   0.00000   0.00000   0.00001   0.00001  -3.14158
    D2        0.00000   0.00000   0.00000   0.00001   0.00001   0.00001
    D3       -1.01298  -0.00013   0.00000   0.00036  -0.00012  -1.01310
    D4        2.12861  -0.00013   0.00000   0.00036  -0.00012   2.12849
    D5        1.01299   0.00013   0.00000  -0.00034   0.00014   1.01312
    D6       -2.12860   0.00013   0.00000  -0.00034   0.00013  -2.12847
    D7        0.00000   0.00000   0.00000   0.00000   0.00000   0.00000
    D8       -3.14159   0.00000   0.00000   0.00000   0.00000  -3.14159
    D9        3.14159   0.00000   0.00000   0.00000   0.00000   3.14159
   D10        0.00000   0.00000   0.00000   0.00000   0.00000   0.00000
   D11        0.99760   0.00047   0.00000   0.00369   0.00369   1.00129
   D12       -0.99759  -0.00047   0.00000  -0.00369  -0.00369  -1.00128
   D13       -3.14159   0.00000   0.00000   0.00000   0.00000  -3.14159
   D14       -2.14399   0.00047   0.00000   0.00369   0.00369  -2.14030
   D15        2.14400  -0.00047   0.00000  -0.00369  -0.00369   2.14031
   D16        0.00001   0.00000   0.00000   0.00000   0.00000   0.00001
   D17       -0.00001   0.00000   0.00000   0.00000   0.00000   0.00000
   D18        3.14159   0.00000   0.00000   0.00000   0.00000   3.14159
   D19        2.14087  -0.00074   0.00000  -0.00358  -0.00358   2.13730
   D20       -1.00072  -0.00074   0.00000  -0.00358  -0.00358  -1.00430
   D21       -2.14089   0.00074   0.00000   0.00358   0.00358  -2.13731
   D22        1.00071   0.00074   0.00000   0.00358   0.00358   1.00429
   D23        0.00000   0.00000   0.00000   0.00000   0.00000   0.00000
   D24        3.14159   0.00000   0.00000   0.00000   0.00000   3.14159
   D25        3.14159   0.00000   0.00000   0.00000   0.00000   3.14159
   D26        0.00000   0.00000   0.00000   0.00000   0.00000   0.00000
   D27       -2.08909  -0.00011   0.00000  -0.00068  -0.00057  -2.08966
   D28        0.00003   0.00000   0.00000   0.00000   0.00000   0.00003
   D29        2.08915   0.00011   0.00000   0.00069   0.00058   2.08973
   D30        1.05250  -0.00011   0.00000  -0.00068  -0.00057   1.05193
   D31       -3.14156   0.00000   0.00000   0.00000   0.00000  -3.14156
   D32       -1.05244   0.00011   0.00000   0.00069   0.00058  -1.05187
         Item               Value     Threshold  Converged?
 Maximum Force            0.005028     0.000450     NO 
 RMS     Force            0.001796     0.000300     NO 
 Maximum Displacement     0.090317     0.001800     NO 
 RMS     Displacement     0.027683     0.001200     NO 
 Predicted change in Energy=-8.362790D-04
 Lowest energy point so far.  Saving SCF results.
 GradGradGradGradGradGradGradGradGradGradGradGradGradGradGradGradGradGrad

 Leave Link  103 at Wed Sep  3 14:24:08 2025, MaxMem=  8053063680 cpu:         0.5
 (Enter /nexus/posix0/bmm/home/sucerqdl/sw/g09/l202.exe)
                          Input orientation:                          
 ---------------------------------------------------------------------
 Center     Atomic      Atomic             Coordinates (Angstroms)
 Number     Number       Type             X           Y           Z
 ---------------------------------------------------------------------
      1          6           0       -0.018689   -0.002519    0.000000
      2          1           0       -0.165191    1.078949   -0.000078
      3          1           0       -0.357321   -0.497158   -0.910372
      4          1           0       -0.357319   -0.497024    0.910447
      5          6           0        1.792061   -0.512447    0.000032
      6          8           0        1.842195   -1.747742    0.000111
      7          7           0        3.057094    0.206958   -0.000014
      8          1           0        3.065769    1.219324   -0.000081
      9          6           0        4.477250   -0.507172    0.000028
     10          1           0        4.492961   -1.151318   -0.887646
     11          1           0        4.492960   -1.151214    0.887778
     12          6           0        5.958945    0.354865   -0.000023
     13          8           0        5.914461    1.585668   -0.000102
     14          7           0        7.206603   -0.375029    0.000024
     15          1           0        7.094895   -1.383447    0.000089
     16          6           0        8.867005   -0.009175    0.000001
     17          1           0        9.250853   -0.459890   -0.915280
     18          1           0        8.938587    1.079205   -0.000036
     19          1           0        9.250860   -0.459829    0.915308
 ---------------------------------------------------------------------
                    Distance matrix (angstroms):
                    1          2          3          4          5
     1  C    0.000000
     2  H    1.091346   0.000000
     3  H    1.090008   1.830208   0.000000
     4  H    1.090008   1.830207   1.820819   0.000000
     5  C    1.881182   2.522574   2.334291   2.334294   0.000000
     6  O    2.551214   3.466955   2.689017   2.689028   1.236313
     7  N    3.082908   3.338187   3.603160   3.603158   1.455284
     8  H    3.317647   3.234008   3.936050   3.936044   2.149735
     9  C    4.524174   4.905919   4.919554   4.919556   2.685194
    10  H    4.739477   5.240253   4.894250   5.214064   2.913930
    11  H    4.739475   5.240256   5.214054   4.894250   2.913927
    12  C    5.988308   6.166793   6.438159   6.438156   4.256189
    13  O    6.142037   6.100733   6.670983   6.670977   4.625610
    14  N    7.234888   7.513814   7.619494   7.619493   5.416285
    15  H    7.246381   7.666305   7.559760   7.559761   5.373889
    16  C    8.885696   9.097504   9.281977   9.281975   7.092821
    17  H    9.325843   9.584754   9.608248   9.780165   7.514927
    18  H    9.022356   9.103778   9.472462   9.472451   7.321624
    19  H    9.325849   9.584769   9.780166   9.608252   7.514930
                    6          7          8          9         10
     6  O    0.000000
     7  N    2.301485   0.000000
     8  H    3.209458   1.012404   0.000000
     9  C    2.912479   1.589599   2.230038   0.000000
    10  H    2.858391   2.166683   2.905958   1.096876   0.000000
    11  H    2.858383   2.166683   2.905963   1.096876   1.775424
    12  C    4.622617   2.905617   3.019562   1.714213   2.281572
    13  O    5.262602   3.172600   2.872152   2.538810   3.209282
    14  N    5.537257   4.190123   4.437169   2.732549   2.958789
    15  H    5.265317   4.339725   4.796694   2.760420   2.758988
    16  C    7.236751   5.813929   5.929886   4.417912   4.607023
    17  H    7.575271   6.296431   6.473996   4.860793   4.807949
    18  H    7.638744   5.945819   5.874489   4.734988   5.052392
    19  H    7.575264   6.296440   6.474013   4.860795   5.134822
                   11         12         13         14         15
    11  H    0.000000
    12  C    2.281573   0.000000
    13  O    3.209287   1.231607   0.000000
    14  N    2.958788   1.445474   2.348183   0.000000
    15  H    2.758983   2.076562   3.195163   1.014587   0.000000
    16  C    4.607024   2.930757   3.355747   1.700230   2.242542
    17  H    5.134831   3.512575   4.019126   2.241415   2.517740
    18  H    5.052383   3.066420   3.066242   2.261540   3.076338
    19  H    4.807950   3.512587   4.019153   2.241411   2.517714
                   16         17         18         19
    16  C    0.000000
    17  H    1.090056   0.000000
    18  H    1.090732   1.817690   0.000000
    19  H    1.090056   1.830588   1.817690   0.000000
 Stoichiometry    C5H10N2O2
 Framework group  C1[X(C5H10N2O2)]
 Deg. of freedom    51
 Full point group                 C1      NOp   1
 RotChk:  IX=0 Diff= 1.13D-03
 Largest Abelian subgroup         C1      NOp   1
 Largest concise Abelian subgroup C1      NOp   1
                         Standard orientation:                         
 ---------------------------------------------------------------------
 Center     Atomic      Atomic             Coordinates (Angstroms)
 Number     Number       Type             X           Y           Z
 ---------------------------------------------------------------------
      1          6           0       -4.358173    0.550186   -0.000007
      2          1           0       -4.398509    1.640786   -0.000085
      3          1           0       -4.743430    0.090929   -0.910380
      4          1           0       -4.743415    0.091063    0.910440
      5          6           0       -2.605784   -0.133901    0.000025
      6          8           0       -2.676360   -1.368197    0.000104
      7          7           0       -1.276623    0.458704   -0.000021
      8          1           0       -1.169260    1.465399   -0.000088
      9          6           0        0.067120   -0.390520    0.000021
     10          1           0        0.019937   -1.033127   -0.887653
     11          1           0        0.019945   -1.033024    0.887771
     12          6           0        1.625820    0.322909   -0.000031
     13          8           0        1.701580    1.552183   -0.000109
     14          7           0        2.796349   -0.525181    0.000017
     15          1           0        2.586829   -1.517898    0.000082
     16          6           0        4.484515   -0.322999   -0.000006
     17          1           0        4.822579   -0.809000   -0.915287
     18          1           0        4.661898    0.753212   -0.000043
     19          1           0        4.822592   -0.808940    0.915301
 ---------------------------------------------------------------------
 Rotational constants (GHZ):      5.0885662      0.4941453      0.4544142
 Leave Link  202 at Wed Sep  3 14:24:08 2025, MaxMem=  8053063680 cpu:         0.0
 (Enter /nexus/posix0/bmm/home/sucerqdl/sw/g09/l301.exe)
 Standard basis: 6-31+G (6D, 7F)
 Ernie: Thresh=  0.10000D-02 Tol=  0.10000D-05 Strict=F.
 There are   137 symmetry adapted cartesian basis functions of A   symmetry.
 There are   137 symmetry adapted basis functions of A   symmetry.
   137 basis functions,   274 primitive gaussians,   137 cartesian basis functions
    35 alpha electrons       35 beta electrons
       nuclear repulsion energy       407.9434820993 Hartrees.
 IExCor= 3226 DFT=T Ex+Corr=BMK ExCW=0 ScaHFX=  0.420000
 ScaDFX=  1.000000  1.000000  1.000000  1.000000 ScalE2=  1.000000  1.000000
 IRadAn=      0 IRanWt=     -1 IRanGd=            0 ICorTp=0 IEmpDi=  4
 NAtoms=   19 NActive=   19 NUniq=   19 SFac= 1.00D+00 NAtFMM=   60 NAOKFM=F Big=F
 Integral buffers will be    131072 words long.
 Raffenetti 2 integral format.
 Two-electron integral symmetry is turned on.
 Leave Link  301 at Wed Sep  3 14:24:08 2025, MaxMem=  8053063680 cpu:         0.6
 (Enter /nexus/posix0/bmm/home/sucerqdl/sw/g09/l302.exe)
 NPDir=0 NMtPBC=     1 NCelOv=     1 NCel=       1 NClECP=     1 NCelD=      1
         NCelK=      1 NCelE2=     1 NClLst=     1 CellRange=     0.0.
 One-electron integrals computed using PRISM.
 NBasis=   137 RedAO= T EigKep=  4.66D-05  NBF=   137
 NBsUse=   137 1.00D-06 EigRej= -1.00D+00 NBFU=   137
 Precomputing XC quadrature grid using
 IXCGrd= 4 IRadAn=           0 IRanWt=          -1 IRanGd=           0 AccXCQ= 0.00D+00.
 Generated NRdTot=       0 NPtTot=           0 NUsed=           0 NTot=          32
 NSgBfM=   136   136   136   136   136 MxSgAt=    19 MxSgA2=    19.
 Leave Link  302 at Wed Sep  3 14:24:08 2025, MaxMem=  8053063680 cpu:         1.8
 (Enter /nexus/posix0/bmm/home/sucerqdl/sw/g09/l303.exe)
 DipDrv:  MaxL=1.
 Leave Link  303 at Wed Sep  3 14:24:08 2025, MaxMem=  8053063680 cpu:         0.4
 (Enter /nexus/posix0/bmm/home/sucerqdl/sw/g09/l401.exe)
 Initial guess from the checkpoint file:  "G-stretched08.chk"
 B after Tr=     0.000000    0.000000    0.000000
         Rot=    1.000000    0.000000    0.000000   -0.000214 Ang=  -0.02 deg.
 Guess basis will be translated and rotated to current coordinates.
 JPrj=2 DoOrth=T DoCkMO=T.
 Generating alternative initial guess.
 ExpMin= 4.38D-02 ExpMax= 5.48D+03 ExpMxC= 8.25D+02 IAcc=2 IRadAn=         4 AccDes= 0.00D+00
 Harris functional with IExCor= 1009 and IRadAn=       4 diagonalized for initial guess.
 HarFok:  IExCor= 1009 AccDes= 0.00D+00 IRadAn=         4 IDoV= 1 UseB2=F ITyADJ=14
 ICtDFT=  3500011 ScaDFX=  1.000000  1.000000  1.000000  1.000000
 FoFCou: FMM=F IPFlag=           0 FMFlag=      100000 FMFlg1=           0
         NFxFlg=           0 DoJE=T BraDBF=F KetDBF=T FulRan=T
         wScrn=  0.000000 ICntrl=     500 IOpCl=  0 I1Cent=   200000004 NGrid=           0
         NMat0=    1 NMatS0=      1 NMatT0=    0 NMatD0=    1 NMtDS0=    0 NMtDT0=    0
 Petite list used in FoFCou.
 Harris En= -455.877758031613    
 Leave Link  401 at Wed Sep  3 14:24:09 2025, MaxMem=  8053063680 cpu:         3.4
 (Enter /nexus/posix0/bmm/home/sucerqdl/sw/g09/l502.exe)
 Closed shell SCF:
 Using DIIS extrapolation, IDIIS=  1040.
 Integral symmetry usage will be decided dynamically.
 Keep R1 ints in memory in canonical form, NReq=46076400.
 IVT=       78102 IEndB=       78102 NGot=  8053063680 MDV=  8008301248
 LenX=  8008301248 LenY=  8008282038
 Requested convergence on RMS density matrix=1.00D-08 within 128 cycles.
 Requested convergence on MAX density matrix=1.00D-06.
 Requested convergence on             energy=1.00D-06.
 No special actions if energy rises.
 FoFCou: FMM=F IPFlag=           0 FMFlag=           0 FMFlg1=           0
         NFxFlg=           0 DoJE=F BraDBF=F KetDBF=F FulRan=T
         wScrn=  0.000000 ICntrl=     600 IOpCl=  0 I1Cent=           0 NGrid=           0
         NMat0=    1 NMatS0=   9453 NMatT0=    0 NMatD0=    1 NMtDS0=    0 NMtDT0=    0
 Symmetry not used in FoFCou.

 Cycle   1  Pass 1  IDiag  1:
 E= -456.021219599071    
 DIIS: error= 1.76D-03 at cycle   1 NSaved=   1.
 NSaved= 1 IEnMin= 1 EnMin= -456.021219599071     IErMin= 1 ErrMin= 1.76D-03
 ErrMax= 1.76D-03  0.00D+00 EMaxC= 1.00D-01 BMatC= 8.18D-04 BMatP= 8.18D-04
 IDIUse=3 WtCom= 9.82D-01 WtEn= 1.76D-02
 Coeff-Com:  0.100D+01
 Coeff-En:   0.100D+01
 Coeff:      0.100D+01
 Gap=     0.501 Goal=   None    Shift=    0.000
 GapD=    0.501 DampG=2.000 DampE=1.000 DampFc=2.0000 IDamp=-1.
 RMSDP=1.24D-03 MaxDP=6.11D-02              OVMax= 1.22D-02

 Cycle   2  Pass 1  IDiag  1:
 E= -456.022500776651     Delta-E=       -0.001281177580 Rises=F Damp=F
 DIIS: error= 9.97D-04 at cycle   2 NSaved=   2.
 NSaved= 2 IEnMin= 2 EnMin= -456.022500776651     IErMin= 2 ErrMin= 9.97D-04
 ErrMax= 9.97D-04  0.00D+00 EMaxC= 1.00D-01 BMatC= 9.71D-05 BMatP= 8.18D-04
 IDIUse=3 WtCom= 9.90D-01 WtEn= 9.97D-03
 Coeff-Com:  0.930D-01 0.907D+00
 Coeff-En:   0.000D+00 0.100D+01
 Coeff:      0.921D-01 0.908D+00
 Gap=     0.300 Goal=   None    Shift=    0.000
 RMSDP=2.22D-04 MaxDP=5.09D-03 DE=-1.28D-03 OVMax= 7.20D-03

 Cycle   3  Pass 1  IDiag  1:
 E= -456.022465146900     Delta-E=        0.000035629752 Rises=F Damp=F
 DIIS: error= 1.32D-03 at cycle   3 NSaved=   3.
 NSaved= 3 IEnMin= 2 EnMin= -456.022500776651     IErMin= 2 ErrMin= 9.97D-04
 ErrMax= 1.32D-03  0.00D+00 EMaxC= 1.00D-01 BMatC= 1.76D-04 BMatP= 9.71D-05
 IDIUse=3 WtCom= 2.16D-01 WtEn= 7.84D-01
 Coeff-Com: -0.609D-01 0.604D+00 0.457D+00
 Coeff-En:   0.000D+00 0.569D+00 0.431D+00
 Coeff:     -0.131D-01 0.576D+00 0.437D+00
 Gap=     0.298 Goal=   None    Shift=    0.000
 RMSDP=1.44D-04 MaxDP=5.18D-03 DE= 3.56D-05 OVMax= 4.08D-03

 Cycle   4  Pass 1  IDiag  1:
 E= -456.022611682533     Delta-E=       -0.000146535633 Rises=F Damp=F
 DIIS: error= 2.37D-04 at cycle   4 NSaved=   4.
 NSaved= 4 IEnMin= 4 EnMin= -456.022611682533     IErMin= 4 ErrMin= 2.37D-04
 ErrMax= 2.37D-04  0.00D+00 EMaxC= 1.00D-01 BMatC= 4.76D-06 BMatP= 9.71D-05
 IDIUse=3 WtCom= 9.98D-01 WtEn= 2.37D-03
 Coeff-Com: -0.349D-01 0.230D+00 0.227D+00 0.577D+00
 Coeff-En:   0.000D+00 0.000D+00 0.000D+00 0.100D+01
 Coeff:     -0.348D-01 0.230D+00 0.227D+00 0.578D+00
 Gap=     0.298 Goal=   None    Shift=    0.000
 RMSDP=3.45D-05 MaxDP=7.03D-04 DE=-1.47D-04 OVMax= 6.14D-04

 Cycle   5  Pass 1  IDiag  1:
 E= -456.022615512406     Delta-E=       -0.000003829874 Rises=F Damp=F
 DIIS: error= 6.58D-05 at cycle   5 NSaved=   5.
 NSaved= 5 IEnMin= 5 EnMin= -456.022615512406     IErMin= 5 ErrMin= 6.58D-05
 ErrMax= 6.58D-05  0.00D+00 EMaxC= 1.00D-01 BMatC= 6.22D-07 BMatP= 4.76D-06
 IDIUse=1 WtCom= 1.00D+00 WtEn= 0.00D+00
 Coeff-Com: -0.332D-02-0.213D-01 0.856D-02 0.283D+00 0.733D+00
 Coeff:     -0.332D-02-0.213D-01 0.856D-02 0.283D+00 0.733D+00
 Gap=     0.298 Goal=   None    Shift=    0.000
 RMSDP=1.19D-05 MaxDP=4.56D-04 DE=-3.83D-06 OVMax= 2.51D-04

 Cycle   6  Pass 1  IDiag  1:
 E= -456.022616056933     Delta-E=       -0.000000544527 Rises=F Damp=F
 DIIS: error= 1.54D-05 at cycle   6 NSaved=   6.
 NSaved= 6 IEnMin= 6 EnMin= -456.022616056933     IErMin= 6 ErrMin= 1.54D-05
 ErrMax= 1.54D-05  0.00D+00 EMaxC= 1.00D-01 BMatC= 5.02D-08 BMatP= 6.22D-07
 IDIUse=1 WtCom= 1.00D+00 WtEn= 0.00D+00
 Coeff-Com:  0.181D-02-0.306D-01-0.195D-01 0.698D-01 0.321D+00 0.657D+00
 Coeff:      0.181D-02-0.306D-01-0.195D-01 0.698D-01 0.321D+00 0.657D+00
 Gap=     0.298 Goal=   None    Shift=    0.000
 RMSDP=3.87D-06 MaxDP=1.69D-04 DE=-5.45D-07 OVMax= 4.86D-05

 Cycle   7  Pass 1  IDiag  1:
 E= -456.022616113374     Delta-E=       -0.000000056441 Rises=F Damp=F
 DIIS: error= 3.17D-06 at cycle   7 NSaved=   7.
 NSaved= 7 IEnMin= 7 EnMin= -456.022616113374     IErMin= 7 ErrMin= 3.17D-06
 ErrMax= 3.17D-06  0.00D+00 EMaxC= 1.00D-01 BMatC= 1.56D-09 BMatP= 5.02D-08
 IDIUse=1 WtCom= 1.00D+00 WtEn= 0.00D+00
 Coeff-Com:  0.424D-03-0.280D-02-0.468D-02-0.387D-02 0.275D-03 0.862D-01
 Coeff-Com:  0.924D+00
 Coeff:      0.424D-03-0.280D-02-0.468D-02-0.387D-02 0.275D-03 0.862D-01
 Coeff:      0.924D+00
 Gap=     0.298 Goal=   None    Shift=    0.000
 RMSDP=9.59D-07 MaxDP=2.42D-05 DE=-5.64D-08 OVMax= 1.80D-05

 Cycle   8  Pass 1  IDiag  1:
 E= -456.022616115231     Delta-E=       -0.000000001857 Rises=F Damp=F
 DIIS: error= 1.29D-06 at cycle   8 NSaved=   8.
 NSaved= 8 IEnMin= 8 EnMin= -456.022616115231     IErMin= 8 ErrMin= 1.29D-06
 ErrMax= 1.29D-06  0.00D+00 EMaxC= 1.00D-01 BMatC= 3.17D-10 BMatP= 1.56D-09
 IDIUse=1 WtCom= 1.00D+00 WtEn= 0.00D+00
 Coeff-Com:  0.721D-04 0.813D-03-0.104D-02-0.624D-02-0.228D-01-0.670D-02
 Coeff-Com:  0.432D+00 0.604D+00
 Coeff:      0.721D-04 0.813D-03-0.104D-02-0.624D-02-0.228D-01-0.670D-02
[...]
 ! D30   D(15,14,16,17)         60.2926         -DE/DX =    0.0                 !
 ! D31   D(15,14,16,18)       -179.9984         -DE/DX =    0.0                 !
 ! D32   D(15,14,16,19)        -60.2895         -DE/DX =    0.0                 !
 --------------------------------------------------------------------------------
 Lowest energy point so far.  Saving SCF results.
 GradGradGradGradGradGradGradGradGradGradGradGradGradGradGradGradGradGrad

 Largest change from initial coordinates is atom   17       0.059 Angstoms.
 Leave Link  103 at Wed Sep  3 14:24:25 2025, MaxMem=  8053063680 cpu:         0.4
 (Enter /nexus/posix0/bmm/home/sucerqdl/sw/g09/l202.exe)
                          Input orientation:                          
 ---------------------------------------------------------------------
 Center     Atomic      Atomic             Coordinates (Angstroms)
 Number     Number       Type             X           Y           Z
 ---------------------------------------------------------------------
      1          6           0       -0.026350    0.000877    0.000001
      2          1           0       -0.173377    1.082146   -0.000062
      3          1           0       -0.359405   -0.495781   -0.911197
      4          1           0       -0.359404   -0.495675    0.911256
      5          6           0        1.799927   -0.511961    0.000031
      6          8           0        1.846111   -1.746897    0.000106
      7          7           0        3.064904    0.206066   -0.000014
      8          1           0        3.074369    1.218404   -0.000079
      9          6           0        4.482617   -0.509335    0.000029
     10          1           0        4.498072   -1.153741   -0.887572
     11          1           0        4.498072   -1.153633    0.887708
     12          6           0        5.959170    0.352368   -0.000025
     13          8           0        5.915076    1.583357   -0.000109
     14          7           0        7.206179   -0.377889    0.000026
     15          1           0        7.094631   -1.386257    0.000096
     16          6           0        8.859341   -0.008355    0.000000
     17          1           0        9.247598   -0.456529   -0.914882
     18          1           0        8.928839    1.080291   -0.000047
     19          1           0        9.247604   -0.456450    0.914918
 ---------------------------------------------------------------------
                    Distance matrix (angstroms):
                    1          2          3          4          5
     1  C    0.000000
     2  H    1.091220   0.000000
     3  H    1.089897   1.831565   0.000000
     4  H    1.089897   1.831564   1.822453   0.000000
     5  C    1.896917   2.536751   2.343782   2.343781   0.000000
     6  O    2.561411   3.475891   2.694451   2.694448   1.235800
     7  N    3.098057   3.354695   3.612304   3.612304   1.454554
     8  H    3.331191   3.250603   3.944537   3.944540   2.149038
     9  C    4.537742   4.920477   4.927037   4.927036   2.682691
    10  H    4.753033   5.254455   4.901892   5.221484   2.911993
    11  H    4.753032   5.254453   5.221485   4.901891   2.911992
    12  C    5.995832   6.175817   6.440030   6.440030   4.248102
    13  O    6.148561   6.109049   6.672482   6.672485   4.617879
    14  N    7.242441   7.522603   7.621174   7.621172   5.407914
    15  H    7.254827   7.675738   7.562146   7.562141   5.366403
    16  C    8.885696   9.098307   9.276483   9.276482   7.077354
    17  H    9.330185   9.589535   9.607084   9.779100   7.503861
    18  H    9.020009   9.102216   9.464971   9.464967   7.304563
    19  H    9.330190   9.589543   9.779103   9.607088   7.503865
                    6          7          8          9         10
     6  O    0.000000
     7  N    2.302069   0.000000
     8  H    3.209615   1.012382   0.000000
     9  C    2.912512   1.587989   2.228955   0.000000
    10  H    2.858794   2.165826   2.905450   1.096966   0.000000
    11  H    2.858793   2.165826   2.905453   1.096966   1.775280
    12  C    4.617810   2.897961   3.011992   1.709602   2.278357
    13  O    5.258049   3.165504   2.864054   2.536001   3.207366
    14  N    5.532135   4.182244   4.429447   2.726732   2.953578
    15  H    5.260896   4.332919   4.790277   2.755287   2.753931
    16  C    7.225505   5.798403   5.913614   4.405303   4.595690
    17  H    7.568637   6.285039   6.461502   4.852308   4.800505
    18  H    7.626141   5.928744   5.856098   4.721843   5.040863
    19  H    7.568635   6.285046   6.461515   4.852310   5.127693
                   11         12         13         14         15
    11  H    0.000000
    12  C    2.278359   0.000000
    13  O    3.207373   1.231779   0.000000
    14  N    2.953575   1.445097   2.348071   0.000000
    15  H    2.753922   2.076556   3.195302   1.014518   0.000000
    16  C    4.595689   2.922518   3.346975   1.693960   2.238932
    17  H    5.127698   3.507853   4.012935   2.238444   2.517309
    18  H    5.040855   3.057581   3.055461   2.256955   3.073789
    19  H    4.800506   3.507863   4.012958   2.238440   2.517287
                   16         17         18         19
    16  C    0.000000
    17  H    1.090235   0.000000
    18  H    1.090862   1.816686   0.000000
    19  H    1.090235   1.829800   1.816685   0.000000
 Stoichiometry    C5H10N2O2
 Framework group  C1[X(C5H10N2O2)]
 Deg. of freedom    51
 Full point group                 C1      NOp   1
 RotChk:  IX=0 Diff= 5.30D-16
 Largest Abelian subgroup         C1      NOp   1
 Largest concise Abelian subgroup C1      NOp   1
                         Standard orientation:                         
 ---------------------------------------------------------------------
 Center     Atomic      Atomic             Coordinates (Angstroms)
 Number     Number       Type             X           Y           Z
 ---------------------------------------------------------------------
      1          6           0       -4.366596    0.553088   -0.000005
      2          1           0       -4.407917    1.643526   -0.000068
      3          1           0       -4.746310    0.091123   -0.911203
      4          1           0       -4.746299    0.091229    0.911250
      5          6           0       -2.598757   -0.134688    0.000025
      6          8           0       -2.672725   -1.368273    0.000100
      7          7           0       -1.270026    0.457093   -0.000020
      8          1           0       -1.162290    1.463726   -0.000085
      9          6           0        0.071507   -0.392610    0.000023
     10          1           0        0.024306   -1.035471   -0.887578
     11          1           0        0.024316   -1.035364    0.887702
     12          6           0        1.624767    0.321620   -0.000031
     13          8           0        1.700432    1.551073   -0.000115
     14          7           0        2.794960   -0.526291    0.000020
     15          1           0        2.586009   -1.519059    0.000090
     16          6           0        4.476196   -0.319054   -0.000006
     17          1           0        4.819092   -0.802816   -0.914888
     18          1           0        4.651092    0.757696   -0.000053
     19          1           0        4.819105   -0.802738    0.914912
 ---------------------------------------------------------------------
 Rotational constants (GHZ):      5.0900375      0.4947516      0.4549397
 Leave Link  202 at Wed Sep  3 14:24:25 2025, MaxMem=  8053063680 cpu:         0.0
 (Enter /nexus/posix0/bmm/home/sucerqdl/sw/g09/l601.exe)
 Copying SCF densities to generalized density rwf, IOpCl= 0 IROHF=0.

 **********************************************************************

            Population analysis using the SCF density.

 **********************************************************************

 Orbital symmetries:
       Occupied  (A) (A) (A) (A) (A) (A) (A) (A) (A) (A) (A) (A)
                 (A) (A) (A) (A) (A) (A) (A) (A) (A) (A) (A) (A)
                 (A) (A) (A) (A) (A) (A) (A) (A) (A) (A) (A)
       Virtual   (A) (A) (A) (A) (A) (A) (A) (A) (A) (A) (A) (A)
                 (A) (A) (A) (A) (A) (A) (A) (A) (A) (A) (A) (A)
                 (A) (A) (A) (A) (A) (A) (A) (A) (A) (A) (A) (A)
                 (A) (A) (A) (A) (A) (A) (A) (A) (A) (A) (A) (A)
                 (A) (A) (A) (A) (A) (A) (A) (A) (A) (A) (A) (A)
                 (A) (A) (A) (A) (A) (A) (A) (A) (A) (A) (A) (A)
                 (A) (A) (A) (A) (A) (A) (A) (A) (A) (A) (A) (A)
                 (A) (A) (A) (A) (A) (A) (A) (A) (A) (A) (A) (A)
                 (A) (A) (A) (A) (A) (A)
 The electronic state is 1-A.
 Alpha  occ. eigenvalues --  -19.54053 -19.52824 -14.72460 -14.71825 -10.63389
 Alpha  occ. eigenvalues --  -10.62067 -10.55229 -10.54805 -10.50893  -1.15071
 Alpha  occ. eigenvalues --   -1.14013  -0.97352  -0.96644  -0.80403  -0.77846
 Alpha  occ. eigenvalues --   -0.76379  -0.63409  -0.62691  -0.56625  -0.51917
 Alpha  occ. eigenvalues --   -0.51378  -0.50493  -0.50466  -0.48514  -0.48055
 Alpha  occ. eigenvalues --   -0.48046  -0.46389  -0.44317  -0.43888  -0.42029
 Alpha  occ. eigenvalues --   -0.41722  -0.31017  -0.30605  -0.29366  -0.28830
 Alpha virt. eigenvalues --    0.00939   0.03379   0.03399   0.03634   0.04082
 Alpha virt. eigenvalues --    0.06472   0.07073   0.07176   0.07920   0.08230
 Alpha virt. eigenvalues --    0.09183   0.10085   0.10861   0.10937   0.11631
 Alpha virt. eigenvalues --    0.11918   0.12934   0.13667   0.15161   0.16043
 Alpha virt. eigenvalues --    0.16318   0.16877   0.18155   0.18700   0.20569
 Alpha virt. eigenvalues --    0.20980   0.21914   0.22446   0.22901   0.23774
 Alpha virt. eigenvalues --    0.23926   0.24917   0.26846   0.27304   0.27508
 Alpha virt. eigenvalues --    0.27707   0.28961   0.29667   0.30984   0.31529
 Alpha virt. eigenvalues --    0.32288   0.33202   0.34171   0.35792   0.36256
 Alpha virt. eigenvalues --    0.36258   0.36754   0.38560   0.39913   0.40835
 Alpha virt. eigenvalues --    0.42473   0.44594   0.46214   0.46755   0.52333
 Alpha virt. eigenvalues --    0.55844   0.65751   0.67945   0.69831   0.69882
 Alpha virt. eigenvalues --    0.70634   0.73827   0.77286   0.78892   0.80849
 Alpha virt. eigenvalues --    0.82006   0.84633   0.86164   0.92130   0.93723
 Alpha virt. eigenvalues --    0.99132   1.00591   1.01655   1.01835   1.10053
 Alpha virt. eigenvalues --    1.10517   1.11721   1.12638   1.13243   1.14730
 Alpha virt. eigenvalues --    1.15780   1.18284   1.22256   1.22519   1.25093
 Alpha virt. eigenvalues --    1.28532   1.32135   1.33594   1.36097   1.36209
 Alpha virt. eigenvalues --    1.40848   1.42479   1.45283   1.48257   1.51089
 Alpha virt. eigenvalues --    1.52973   1.55341   1.57380   1.65743   1.82127
 Alpha virt. eigenvalues --    1.99310   2.09833
          Condensed to atoms (all electrons):
               1          2          3          4          5          6
     1  C    5.861495   0.338432   0.398028   0.398028  -0.026804  -0.123311
     2  H    0.338432   0.522631  -0.025527  -0.025527  -0.016613   0.005725
     3  H    0.398028  -0.025527   0.468885  -0.022679  -0.042549  -0.001528
     4  H    0.398028  -0.025527  -0.022679   0.468885  -0.042549  -0.001528
     5  C   -0.026804  -0.016613  -0.042549  -0.042549   5.457925   0.389564
     6  O   -0.123311   0.005725  -0.001528  -0.001528   0.389564   8.478089
     7  N   -0.141854   0.003305   0.000089   0.000089  -0.052788  -0.217452
     8  H    0.007862  -0.000254   0.000004   0.000004   0.024202   0.007184
     9  C   -0.079883   0.000543  -0.002757  -0.002757  -0.611491  -0.037454
    10  H   -0.001138   0.000000   0.000004  -0.000001   0.001792   0.000768
    11  H   -0.001138   0.000000  -0.000001   0.000004   0.001791   0.000768
    12  C    0.033382  -0.000200  -0.000185  -0.000185   0.305781   0.017457
    13  O   -0.000960  -0.000001   0.000000   0.000000   0.004528  -0.000182
    14  N   -0.000329   0.000002   0.000000   0.000000   0.005304  -0.001247
    15  H    0.000049   0.000000   0.000000   0.000000   0.001971   0.000054
    16  C    0.000078   0.000000   0.000000   0.000000   0.002294  -0.000051
    17  H    0.000000   0.000000   0.000000   0.000000   0.000020   0.000000
    18  H    0.000000   0.000000   0.000000   0.000000  -0.000018   0.000000
    19  H    0.000000   0.000000   0.000000   0.000000   0.000020   0.000000
               7          8          9         10         11         12
     1  C   -0.141854   0.007862  -0.079883  -0.001138  -0.001138   0.033382
     2  H    0.003305  -0.000254   0.000543   0.000000   0.000000  -0.000200
     3  H    0.000089   0.000004  -0.002757   0.000004  -0.000001  -0.000185
     4  H    0.000089   0.000004  -0.002757  -0.000001   0.000004  -0.000185
     5  C   -0.052788   0.024202  -0.611491   0.001792   0.001791   0.305781
     6  O   -0.217452   0.007184  -0.037454   0.000768   0.000768   0.017457
     7  N    7.594361   0.256404   0.238284  -0.047554  -0.047554  -0.034755
     8  H    0.256404   0.325249  -0.046152   0.001649   0.001649   0.014416
     9  C    0.238284  -0.046152   9.716327   0.337355   0.337355  -2.652626
    10  H   -0.047554   0.001649   0.337355   0.499804  -0.036813  -0.006292
    11  H   -0.047554   0.001649   0.337355  -0.036813   0.499804  -0.006291
    12  C   -0.034755   0.014416  -2.652626  -0.006292  -0.006291   7.047705
    13  O    0.020994   0.002342   0.017219   0.001173   0.001173   0.248897
    14  N    0.011754   0.001531  -0.631186   0.013862   0.013862   0.469771
    15  H   -0.000038  -0.000002   0.057001  -0.000552  -0.000552  -0.048468
    16  C    0.002277   0.000307  -0.134813   0.001786   0.001786   0.001582
    17  H   -0.000011   0.000000   0.003588   0.000005  -0.000001  -0.002366
    18  H   -0.000006   0.000000  -0.008012  -0.000001  -0.000001  -0.007760
    19  H   -0.000011   0.000000   0.003588  -0.000001   0.000005  -0.002366
              13         14         15         16         17         18
     1  C   -0.000960  -0.000329   0.000049   0.000078   0.000000   0.000000
     2  H   -0.000001   0.000002   0.000000   0.000000   0.000000   0.000000
     3  H    0.000000   0.000000   0.000000   0.000000   0.000000   0.000000
     4  H    0.000000   0.000000   0.000000   0.000000   0.000000   0.000000
     5  C    0.004528   0.005304   0.001971   0.002294   0.000020  -0.000018
     6  O   -0.000182  -0.001247   0.000054  -0.000051   0.000000   0.000000
     7  N    0.020994   0.011754  -0.000038   0.002277  -0.000011  -0.000006
     8  H    0.002342   0.001531  -0.000002   0.000307   0.000000   0.000000
     9  C    0.017219  -0.631186   0.057001  -0.134813   0.003588  -0.008012
    10  H    0.001173   0.013862  -0.000552   0.001786   0.000005  -0.000001
    11  H    0.001173   0.013862  -0.000552   0.001786  -0.000001  -0.000001
    12  C    0.248897   0.469771  -0.048468   0.001582  -0.002366  -0.007760
    13  O    8.462705  -0.208198   0.010264  -0.022358  -0.000058   0.004447
    14  N   -0.208198   7.548390   0.256323   0.184111  -0.037343  -0.033839
    15  H    0.010264   0.256323   0.404843  -0.028633  -0.000699   0.002061
    16  C   -0.022358   0.184111  -0.028633   5.225406   0.381857   0.400828
    17  H   -0.000058  -0.037343  -0.000699   0.381857   0.495552  -0.022553
    18  H    0.004447  -0.033839   0.002061   0.400828  -0.022553   0.445451
    19  H   -0.000058  -0.037342  -0.000699   0.381857  -0.032562  -0.022553
              19
     1  C    0.000000
     2  H    0.000000
     3  H    0.000000
     4  H    0.000000
     5  C    0.000020
     6  O    0.000000
     7  N   -0.000011
     8  H    0.000000
     9  C    0.003588
    10  H   -0.000001
    11  H    0.000005
    12  C   -0.002366
    13  O   -0.000058
    14  N   -0.037342
    15  H   -0.000699
    16  C    0.381857
    17  H   -0.032562
    18  H   -0.022553
    19  H    0.495552
 Mulliken charges:
               1
     1  C   -0.661939
     2  H    0.197483
     3  H    0.228216
     4  H    0.228216
     5  C    0.597622
     6  O   -0.516856
     7  N   -0.585536
     8  H    0.403606
     9  C   -0.504129
    10  H    0.234154
    11  H    0.234153
    12  C    0.622504
    13  O   -0.541927
    14  N   -0.555427
    15  H    0.347078
    16  C   -0.398315
    17  H    0.214570
    18  H    0.241957
    19  H    0.214569
 Sum of Mulliken charges =   0.00000
 Mulliken charges with hydrogens summed into heavy atoms:
               1
     1  C   -0.008024
     5  C    0.597622
     6  O   -0.516856
     7  N   -0.181930
     9  C   -0.035822
    12  C    0.622504
    13  O   -0.541927
    14  N   -0.208348
    16  C    0.272780
 Electronic spatial extent (au):  <R**2>=           2382.7763
 Charge=              0.0000 electrons
 Dipole moment (field-independent basis, Debye):
    X=              2.8301    Y=             -0.7478    Z=              0.0001  Tot=              2.9272
 Quadrupole moment (field-independent basis, Debye-Ang):
   XX=            -34.4078   YY=            -61.5887   ZZ=            -55.6156
   XY=            -18.7568   XZ=              0.0011   YZ=              0.0005
 Traceless Quadrupole moment (field-independent basis, Debye-Ang):
   XX=             16.1296   YY=            -11.0513   ZZ=             -5.0782
   XY=            -18.7568   XZ=              0.0011   YZ=              0.0005
 Octapole moment (field-independent basis, Debye-Ang**2):
  XXX=             65.2947  YYY=             -1.4443  ZZZ=              0.0004  XYY=              9.6077
  XXY=              8.1011  XXZ=             -0.0007  XZZ=             -0.6681  YZZ=             -2.4838
  YYZ=             -0.0001  XYZ=             -0.0007
 Hexadecapole moment (field-independent basis, Debye-Ang**3):
 XXXX=          -2153.2724 YYYY=           -301.9353 ZZZZ=            -75.5031 XXXY=           -121.2975
 XXXZ=              0.0126 YYYX=            -56.5459 YYYZ=              0.0079 ZZZX=              0.0071
 ZZZY=              0.0068 XXYY=           -540.7081 XXZZ=           -462.7981 YYZZ=            -60.9902
 XXYZ=              0.0055 YYXZ=              0.0074 ZZXY=              3.9056
 N-N= 4.080812325159D+02 E-N=-1.880383013915D+03  KE= 4.521077489802D+02
 No NMR shielding tensors so no spin-rotation constants.
 Leave Link  601 at Wed Sep  3 14:24:25 2025, MaxMem=  8053063680 cpu:         1.3
 (Enter /nexus/posix0/bmm/home/sucerqdl/sw/g09/l9999.exe)
 1\1\GINC-SLURM-ORBIT-CPU1\FOpt\RBMK\6-31+G\C5H10N2O2\SUCERQDL\03-Sep-2
 025\0\\#P bmk/6-31+g opt(modredun,calcfc)\\Gaussian input prepared by 
 ASE\\0,1\C,-0.0263503977,0.0008765059,0.0000007189\H,-0.1733766809,1.0
 821464933,-0.0000615801\H,-0.3594047961,-0.4957810738,-0.9111966797\H,
 -0.3594035663,-0.4956747081,0.9112564887\C,1.7999273834,-0.5119606122,
 0.0000307462\O,1.8461109388,-1.7468974724,0.0001058946\N,3.0649043616,
 0.206065819,-0.0000136117\H,3.074369474,1.2184037708,-0.0000792197\C,4
 .4826174077,-0.5093346237,0.0000294017\H,4.4980717724,-1.1537407688,-0
 .8875715344\H,4.4980719874,-1.1536333619,0.8877082988\C,5.95917048,0.3
 523676792,-0.0000251682\O,5.9150764406,1.5833574452,-0.0001086307\N,7.
 2061793456,-0.3778893518,0.0000257217\H,7.0946309455,-1.3862565756,0.0
 000962639\C,8.8593411388,-0.0083547932,0.0000001786\H,9.2475979898,-0.
 4565287816,-0.9148820989\H,8.9288390526,1.0802910823,-0.0000466679\H,9
 .2476039559,-0.4564501126,0.9149183901\\Version=ES64L-G09RevD.01\State
 =1-A\HF=-456.0226304\RMSD=5.414e-09\RMSF=1.467e-02\Dipole=1.1367408,-0
 .1847024,0.0000198\Quadrupole=14.4971659,-10.7216163,-3.7755495,-11.72
 8836,0.0007656,0.0004341\PG=C01 [X(C5H10N2O2)]\\@


 YOU SHOULDN'T LET PEOPLE DRIVE YOU CRAZY
 WHEN YOU KNOW IT'S WITHIN WALKING DISTANCE.
 Job cpu time:       0 days  0 hours 11 minutes 31.6 seconds.
 File lengths (MBytes):  RWF=    132 Int=      0 D2E=      0 Chk=      3 Scr=      2
 Normal termination of Gaussian 09 at Wed Sep  3 14:24:25 2025.
