 Entering Gaussian System, Link 0=g09
 Input=G-stretched06.com
 Output=G-stretched06.log
 Initial command:
 /nexus/posix0/bmm/home/sucerqdl/sw/g09/l1.exe "/nexus/posix0/bmm/home/sucerqdl/sw/g09/g09_scratch/Gau-2875775.inp" -scrdir="/nexus/posix0/bmm/home/sucerqdl/sw/g09/g09_scratch/"
 Entering Link 1 = /nexus/posix0/bmm/home/sucerqdl/sw/g09/l1.exe PID=   2875777.
  
 Copyright (c) 1988,1990,1992,1993,1995,1998,2003,2009,2013,
            Gaussian, Inc.  All Rights Reserved.
  
 This is part of the Gaussian(R) 09 program.  It is based on
 the Gaussian(R) 03 system (copyright 2003, Gaussian, Inc.),
 the Gaussian(R) 98 system (copyright 1998, Gaussian, Inc.),
 the Gaussian(R) 94 system (copyright 1995, Gaussian, Inc.),
 the Gaussian 92(TM) system (copyright 1992, Gaussian, Inc.),
 the Gaussian 90(TM) system (copyright 1990, Gaussian, Inc.),
 the Gaussian 88(TM) system (copyright 1988, Gaussian, Inc.),
 the Gaussian 86(TM) system (copyright 1986, Carnegie Mellon
 University), and the Gaussian 82(TM) system (copyright 1983,
 Carnegie Mellon University). Gaussian is a federally registered
 trademark of Gaussian, Inc.
  
 This software contains proprietary and confidential information,
 including trade secrets, belonging to Gaussian, Inc.
  
 This software is provided under written license and may be
 used, copied, transmitted, or stored only in accord with that
 written license.
  
 The following legend is applicable only to US Government
 contracts under FAR:
  
                    RESTRICTED RIGHTS LEGEND
  
 Use, reproduction and disclosure by the US Government is
 subject to restrictions as set forth in subparagraphs (a)
 and (c) of the Commercial Computer Software - Restricted
 Rights clause in FAR 52.227-19.
  
 Gaussian, Inc.
 340 Quinnipiac St., Bldg. 40, Wallingford CT 06492
  
  
 ---------------------------------------------------------------
 Warning -- This program may not be used in any manner that
 competes with the business of Gaussian, Inc. or will provide
 assistance to any competitor of Gaussian, Inc.  The licensee
 of this program is prohibited from giving any competitor of
 Gaussian, Inc. access to this program.  By using this program,
 the user acknowledges that Gaussian, Inc. is engaged in the
 business of creating and licensing software in the field of
 computational chemistry and represents and warrants to the
 licensee that it is not a competitor of Gaussian, Inc. and that
 it will not use this program in any manner prohibited above.
 ---------------------------------------------------------------
  

 Cite this work as:
 Gaussian 09, Revision D.01,
 M. J. Frisch, G. W. Trucks, H. B. Schlegel, G. E. Scuseria, 
 M. A. Robb, J. R. Cheeseman, G. Scalmani, V. Barone, B. Mennucci, 
 G. A. Petersson, H. Nakatsuji, M. Caricato, X. Li, H. P. Hratchian, 
 A. F. Izmaylov, J. Bloino, G. Zheng, J. L. Sonnenberg, M. Hada, 
 M. Ehara, K. Toyota, R. Fukuda, J. Hasegawa, M. Ishida, T. Nakajima, 
 Y. Honda, O. Kitao, H. Nakai, T. Vreven, J. A. Montgomery, Jr., 
 J. E. Peralta, F. Ogliaro, M. Bearpark, J. J. Heyd, E. Brothers, 
 K. N. Kudin, V. N. Staroverov, T. Keith, R. Kobayashi, J. Normand, 
 K. Raghavachari, A. Rendell, J. C. Burant, S. S. Iyengar, J. Tomasi, 
 M. Cossi, N. Rega, J. M. Millam, M. Klene, J. E. Knox, J. B. Cross, 
 V. Bakken, C. Adamo, J. Jaramillo, R. Gomperts, R. E. Stratmann, 
 O. Yazyev, A. J. Austin, R. Cammi, C. Pomelli, J. W. Ochterski, 
 R. L. Martin, K. Morokuma, V. G. Zakrzewski, G. A. Voth, 
 P. Salvador, J. J. Dannenberg, S. Dapprich, A. D. Daniels, 
 O. Farkas, J. B. Foresman, J. V. Ortiz, J. Cioslowski, 
 and D. J. Fox, Gaussian, Inc., Wallingford CT, 2013.
 
 ******************************************
 Gaussian 09:  ES64L-G09RevD.01 24-Apr-2013
                 3-Sep-2025 
 ******************************************
 %mem=60GB
 %NProcShared=16
 Will use up to   16 processors via shared memory.
 %chk=G-stretched06
 ----------------------------------
 #P bmk/6-31+g opt(modredun,calcfc)
 ----------------------------------
 1/10=4,14=-1,18=120,19=15,26=3,38=1/1,3;
 2/9=110,12=2,17=6,18=5,40=1/2;
 3/5=1,6=6,7=10,11=2,16=1,25=1,30=1,71=2,74=-34,140=1/1,2,3;
 4//1;
 5/5=2,38=5/2;
 8/6=4,10=90,11=11/1;
 11/6=1,8=1,9=11,15=111,16=1/1,2,10;
 10/6=1,13=1/2;
 6/7=2,8=2,9=2,10=2,28=1/1;
 7/10=1,18=20,25=1/1,2,3,16;
 1/10=4,14=-1,18=20,19=15,26=3/3(2);
 2/9=110/2;
 99//99;
 2/9=110/2;
 3/5=1,6=6,7=10,11=2,16=1,25=1,30=1,71=1,74=-34/1,2,3;
 4/5=5,16=3,69=1/1;
 5/5=2,38=5/2;
 7//1,2,3,16;
 1/14=-1,18=20,19=15,26=3/3(-5);
 2/9=110/2;
 6/7=2,8=2,9=2,10=2,19=2,28=1/1;
 99/9=1/99;
 Leave Link    1 at Wed Sep  3 14:21:56 2025, MaxMem=  8053063680 cpu:         1.6
 (Enter /nexus/posix0/bmm/home/sucerqdl/sw/g09/l101.exe)
 ------------------------------
 Gaussian input prepared by ASE
 ------------------------------
 Symbolic Z-matrix:
 Charge =  0 Multiplicity = 1
 C                     0.        0.        0. 
 H                    -0.07051   1.09228   0.00004 
 H                    -0.46115  -0.42849  -0.89895 
 H                    -0.46121  -0.42857   0.89888 
 C                     1.61037  -0.57587   0.00004 
 O                     1.68473  -1.81815   0.00013 
 N                     2.86174   0.15224  -0.00001 
 H                     2.8827    1.16447  -0.00008 
 C                     4.25049  -0.57069   0.00005 
 H                     4.26808  -1.22482  -0.88273 
 H                     4.26809  -1.22468   0.88293 
 C                     5.66743   0.29646  -0.00002 
 O                     5.61834   1.53216  -0.00012 
 N                     6.91399  -0.42982   0.00003 
 H                     6.80536  -1.43758   0.00012 
 C                     8.4857    0.        0. 
 H                     8.94866  -0.40687  -0.90759 
 H                     8.51412   1.09243  -0.00009 
 H                     8.94866  -0.40671   0.90766 
 
 The following ModRedundant input section has been read:
 B       1      16 F                                                           
 
 NAtoms=     19 NQM=       19 NQMF=       0 NMMI=      0 NMMIF=      0
                NMic=       0 NMicF=      0.
                    Isotopes and Nuclear Properties:
 (Nuclear quadrupole moments (NQMom) in fm**2, nuclear magnetic moments (NMagM)
  in nuclear magnetons)

  Atom         1           2           3           4           5           6           7           8           9          10
 IAtWgt=          12           1           1           1          12          16          14           1          12           1
 AtmWgt=  12.0000000   1.0078250   1.0078250   1.0078250  12.0000000  15.9949146  14.0030740   1.0078250  12.0000000   1.0078250
 NucSpn=           0           1           1           1           0           0           2           1           0           1
 AtZEff=   0.0000000   0.0000000   0.0000000   0.0000000   0.0000000   0.0000000   0.0000000   0.0000000   0.0000000   0.0000000
 NQMom=    0.0000000   0.0000000   0.0000000   0.0000000   0.0000000   0.0000000   2.0440000   0.0000000   0.0000000   0.0000000
 NMagM=    0.0000000   2.7928460   2.7928460   2.7928460   0.0000000   0.0000000   0.4037610   2.7928460   0.0000000   2.7928460
 AtZNuc=   6.0000000   1.0000000   1.0000000   1.0000000   6.0000000   8.0000000   7.0000000   1.0000000   6.0000000   1.0000000

  Atom        11          12          13          14          15          16          17          18          19
 IAtWgt=           1          12          16          14           1          12           1           1           1
 AtmWgt=   1.0078250  12.0000000  15.9949146  14.0030740   1.0078250  12.0000000   1.0078250   1.0078250   1.0078250
 NucSpn=           1           0           0           2           1           0           1           1           1
 AtZEff=   0.0000000   0.0000000   0.0000000   0.0000000   0.0000000   0.0000000   0.0000000   0.0000000   0.0000000
 NQMom=    0.0000000   0.0000000   0.0000000   2.0440000   0.0000000   0.0000000   0.0000000   0.0000000   0.0000000
 NMagM=    2.7928460   0.0000000   0.0000000   0.4037610   2.7928460   0.0000000   2.7928460   2.7928460   2.7928460
 AtZNuc=   1.0000000   6.0000000   8.0000000   7.0000000   1.0000000   6.0000000   1.0000000   1.0000000   1.0000000
 Leave Link  101 at Wed Sep  3 14:21:56 2025, MaxMem=  8053063680 cpu:         5.8
 (Enter /nexus/posix0/bmm/home/sucerqdl/sw/g09/l103.exe)

 GradGradGradGradGradGradGradGradGradGradGradGradGradGradGradGradGradGrad
 Berny optimization.
 Initialization pass.
                           ----------------------------
                           !    Initial Parameters    !
                           ! (Angstroms and Degrees)  !
 --------------------------                            --------------------------
 ! Name  Definition              Value          Derivative Info.                !
 --------------------------------------------------------------------------------
 ! R1    R(1,2)                  1.0946         calculate D2E/DX2 analytically  !
 ! R2    R(1,3)                  1.0974         calculate D2E/DX2 analytically  !
 ! R3    R(1,4)                  1.0974         calculate D2E/DX2 analytically  !
 ! R4    R(1,5)                  1.7102         calculate D2E/DX2 analytically  !
 ! R5    R(1,16)                 8.4857         frozen, calculate D2E/DX2 analyt!
 ! R6    R(5,6)                  1.2445         calculate D2E/DX2 analytically  !
 ! R7    R(5,7)                  1.4478         calculate D2E/DX2 analytically  !
 ! R8    R(7,8)                  1.0125         calculate D2E/DX2 analytically  !
 ! R9    R(7,9)                  1.5656         calculate D2E/DX2 analytically  !
 ! R10   R(9,10)                 1.0989         calculate D2E/DX2 analytically  !
 ! R11   R(9,11)                 1.0989         calculate D2E/DX2 analytically  !
 ! R12   R(9,12)                 1.6612         calculate D2E/DX2 analytically  !
 ! R13   R(12,13)                1.2367         calculate D2E/DX2 analytically  !
 ! R14   R(12,14)                1.4427         calculate D2E/DX2 analytically  !
 ! R15   R(14,15)                1.0136         calculate D2E/DX2 analytically  !
 ! R16   R(14,16)                1.6294         calculate D2E/DX2 analytically  !
 ! R17   R(16,17)                1.0971         calculate D2E/DX2 analytically  !
 ! R18   R(16,18)                1.0928         calculate D2E/DX2 analytically  !
 ! R19   R(16,19)                1.0971         calculate D2E/DX2 analytically  !
 ! A1    A(2,1,3)              111.2596         calculate D2E/DX2 analytically  !
 ! A2    A(2,1,4)              111.2601         calculate D2E/DX2 analytically  !
 ! A3    A(2,1,5)              113.3708         calculate D2E/DX2 analytically  !
 ! A4    A(3,1,4)              109.9898         calculate D2E/DX2 analytically  !
 ! A5    A(3,1,5)              105.3205         calculate D2E/DX2 analytically  !
 ! A6    A(4,1,5)              105.3198         calculate D2E/DX2 analytically  !
 ! A7    A(1,5,6)              113.1026         calculate D2E/DX2 analytically  !
 ! A8    A(1,5,7)              130.13           calculate D2E/DX2 analytically  !
 ! A9    A(6,5,7)              116.7675         calculate D2E/DX2 analytically  !
 ! A10   A(5,7,8)              121.3793         calculate D2E/DX2 analytically  !
 ! A11   A(5,7,9)              122.3074         calculate D2E/DX2 analytically  !
 ! A12   A(8,7,9)              116.3133         calculate D2E/DX2 analytically  !
 ! A13   A(7,9,10)             106.8004         calculate D2E/DX2 analytically  !
 ! A14   A(7,9,11)             106.8004         calculate D2E/DX2 analytically  !
 ! A15   A(7,9,12)             121.0341         calculate D2E/DX2 analytically  !
 ! A16   A(10,9,11)            106.9138         calculate D2E/DX2 analytically  !
 ! A17   A(10,9,12)            107.28           calculate D2E/DX2 analytically  !
 ! A18   A(11,9,12)            107.2799         calculate D2E/DX2 analytically  !
 ! A19   A(9,12,13)            119.1914         calculate D2E/DX2 analytically  !
 ! A20   A(9,12,14)            118.3076         calculate D2E/DX2 analytically  !
 ! A21   A(13,12,14)           122.501          calculate D2E/DX2 analytically  !
 ! A22   A(12,14,15)           114.0742         calculate D2E/DX2 analytically  !
 ! A23   A(12,14,16)           134.479          calculate D2E/DX2 analytically  !
 ! A24   A(15,14,16)           111.4468         calculate D2E/DX2 analytically  !
 ! A25   A(14,16,17)           108.013          calculate D2E/DX2 analytically  !
 ! A26   A(14,16,18)           106.7854         calculate D2E/DX2 analytically  !
 ! A27   A(14,16,19)           108.0131         calculate D2E/DX2 analytically  !
 ! A28   A(17,16,18)           111.0814         calculate D2E/DX2 analytically  !
 ! A29   A(17,16,19)           111.6458         calculate D2E/DX2 analytically  !
 ! A30   A(18,16,19)           111.0813         calculate D2E/DX2 analytically  !
 ! D1    D(2,1,5,6)            179.9933         calculate D2E/DX2 analytically  !
 ! D2    D(2,1,5,7)             -0.0069         calculate D2E/DX2 analytically  !
 ! D3    D(3,1,5,6)            -58.1402         calculate D2E/DX2 analytically  !
 ! D4    D(3,1,5,7)            121.8595         calculate D2E/DX2 analytically  !
 ! D5    D(4,1,5,6)             58.1268         calculate D2E/DX2 analytically  !
 ! D6    D(4,1,5,7)           -121.8735         calculate D2E/DX2 analytically  !
 ! D7    D(1,5,7,8)              0.0002         calculate D2E/DX2 analytically  !
 ! D8    D(1,5,7,9)            180.0            calculate D2E/DX2 analytically  !
 ! D9    D(6,5,7,8)            179.9999         calculate D2E/DX2 analytically  !
 ! D10   D(6,5,7,9)             -0.0003         calculate D2E/DX2 analytically  !
 ! D11   D(5,7,9,10)            57.0584         calculate D2E/DX2 analytically  !
 ! D12   D(5,7,9,11)           -57.0593         calculate D2E/DX2 analytically  !
 ! D13   D(5,7,9,12)           179.9996         calculate D2E/DX2 analytically  !
 ! D14   D(8,7,9,10)          -122.9418         calculate D2E/DX2 analytically  !
 ! D15   D(8,7,9,11)           122.9405         calculate D2E/DX2 analytically  !
 ! D16   D(8,7,9,12)            -0.0006         calculate D2E/DX2 analytically  !
 ! D17   D(7,9,12,13)           -0.0001         calculate D2E/DX2 analytically  !
 ! D18   D(7,9,12,14)          179.9998         calculate D2E/DX2 analytically  !
 ! D19   D(10,9,12,13)         122.7132         calculate D2E/DX2 analytically  !
 ! D20   D(10,9,12,14)         -57.2868         calculate D2E/DX2 analytically  !
 ! D21   D(11,9,12,13)        -122.7134         calculate D2E/DX2 analytically  !
 ! D22   D(11,9,12,14)          57.2866         calculate D2E/DX2 analytically  !
 ! D23   D(9,12,14,15)          -0.0001         calculate D2E/DX2 analytically  !
 ! D24   D(9,12,14,16)        -180.0            calculate D2E/DX2 analytically  !
 ! D25   D(13,12,14,15)        179.9999         calculate D2E/DX2 analytically  !
 ! D26   D(13,12,14,16)          0.0            calculate D2E/DX2 analytically  !
 ! D27   D(12,14,16,17)       -119.5482         calculate D2E/DX2 analytically  !
 ! D28   D(12,14,16,18)         -0.0003         calculate D2E/DX2 analytically  !
 ! D29   D(12,14,16,19)        119.5474         calculate D2E/DX2 analytically  !
 ! D30   D(15,14,16,17)         60.452          calculate D2E/DX2 analytically  !
 ! D31   D(15,14,16,18)        179.9998         calculate D2E/DX2 analytically  !
 ! D32   D(15,14,16,19)        -60.4525         calculate D2E/DX2 analytically  !
 --------------------------------------------------------------------------------
 Trust Radius=3.00D-01 FncErr=1.00D-07 GrdErr=1.00D-06
 Number of steps in this run=     91 maximum allowed number of steps=    114.
 GradGradGradGradGradGradGradGradGradGradGradGradGradGradGradGradGradGrad

 Leave Link  103 at Wed Sep  3 14:21:56 2025, MaxMem=  8053063680 cpu:         0.2
 (Enter /nexus/posix0/bmm/home/sucerqdl/sw/g09/l202.exe)
                          Input orientation:                          
 ---------------------------------------------------------------------
 Center     Atomic      Atomic             Coordinates (Angstroms)
 Number     Number       Type             X           Y           Z
 ---------------------------------------------------------------------
      1          6           0        0.000000    0.000000    0.000000
      2          1           0       -0.070515    1.092280    0.000041
      3          1           0       -0.461150   -0.428491   -0.898949
      4          1           0       -0.461213   -0.428571    0.898878
      5          6           0        1.610374   -0.575871    0.000044
      6          8           0        1.684734   -1.818152    0.000130
      7          7           0        2.861738    0.152235   -0.000008
      8          1           0        2.882700    1.164470   -0.000079
      9          6           0        4.250491   -0.570693    0.000047
     10          1           0        4.268083   -1.224817   -0.882733
     11          1           0        4.268088   -1.224675    0.882932
     12          6           0        5.667427    0.296459   -0.000024
     13          8           0        5.618341    1.532158   -0.000124
     14          7           0        6.913987   -0.429819    0.000035
     15          1           0        6.805364   -1.437578    0.000119
     16          6           0        8.485697    0.000000    0.000000
     17          1           0        8.948657   -0.406874   -0.907587
     18          1           0        8.514123    1.092426   -0.000095
     19          1           0        8.948655   -0.406714    0.907659
 ---------------------------------------------------------------------
                    Distance matrix (angstroms):
                    1          2          3          4          5
     1  C    0.000000
     2  H    1.094554   0.000000
     3  H    1.097440   1.809289   0.000000
     4  H    1.097439   1.809293   1.797827   0.000000
     5  C    1.710243   2.368146   2.262989   2.262979   0.000000
     6  O    2.478710   3.398752   2.710040   2.709939   1.244505
     7  N    2.865785   3.079252   3.490977   3.491037   1.447774
     8  H    3.109011   2.954097   3.811407   3.811516   2.155829
     9  C    4.288632   4.629964   4.798747   4.798776   2.640122
    10  H    4.527243   4.997165   4.795836   5.116091   2.874691
    11  H    4.527248   4.997125   5.116122   4.795866   2.874697
    12  C    5.675176   5.792867   6.236431   6.236500   4.149776
    13  O    5.823509   5.705836   6.450755   6.450863   4.528530
    14  N    6.927334   7.148430   7.429725   7.429771   5.305624
    15  H    6.955546   7.326520   7.391130   7.391144   5.265972
    16  C    8.485697   8.625650   9.002099   9.002159   6.899398
    17  H    9.003762   9.187857   9.409836   9.581725   7.396131
    18  H    8.583920   8.584638   9.147494   9.147582   7.102462
    19  H    9.003760   9.187828   9.581687   9.409898   7.396131
                    6          7          8          9         10
     6  O    0.000000
     7  N    2.295161   0.000000
     8  H    3.214211   1.012451   0.000000
     9  C    2.852938   1.565650   2.209444   0.000000
    10  H    2.793776   2.157147   2.899492   1.098857   0.000000
    11  H    2.793791   2.157148   2.899487   1.098858   1.765665
    12  C    4.509260   2.809394   2.916873   1.661223   2.247581
    13  O    5.166994   3.082701   2.760240   2.508585   3.194230
    14  N    5.410411   4.093838   4.335093   2.667219   2.900363
    15  H    5.134753   4.252022   4.707223   2.697938   2.694901
    16  C    7.039799   5.626019   5.722724   4.273484   4.479694
    17  H    7.455215   6.179554   6.331550   4.787839   4.751570
    18  H    7.423747   5.730045   5.631884   4.576519   4.917064
    19  H    7.455220   6.179550   6.331542   4.787839   5.077652
                   11         12         13         14         15
    11  H    0.000000
    12  C    2.247579   0.000000
    13  O    3.194229   1.236673   0.000000
    14  N    2.900359   1.442702   2.351181   0.000000
    15  H    2.694895   2.074074   3.198180   1.013596   0.000000
    16  C    4.479690   2.833819   3.251037   1.629422   2.211368
    17  H    5.077646   3.476322   3.959083   2.228046   2.545581
    18  H    4.917063   2.955882   2.928979   2.208543   3.052994
    19  H    4.751566   3.476319   3.959077   2.228046   2.545585
                   16         17         18         19
    16  C    0.000000
    17  H    1.097083   0.000000
    18  H    1.092796   1.805619   0.000000
    19  H    1.097083   1.815246   1.805618   0.000000
 Stoichiometry    C5H10N2O2
 Framework group  C1[X(C5H10N2O2)]
 Deg. of freedom    51
 Full point group                 C1      NOp   1
 Largest Abelian subgroup         C1      NOp   1
 Largest concise Abelian subgroup C1      NOp   1
                         Standard orientation:                         
 ---------------------------------------------------------------------
 Center     Atomic      Atomic             Coordinates (Angstroms)
 Number     Number       Type             X           Y           Z
 ---------------------------------------------------------------------
      1          6           0       -4.111852    0.593299   -0.000012
      2          1           0       -4.069022    1.687015    0.000029
      3          1           0       -4.614845    0.214799   -0.898961
      4          1           0       -4.614916    0.214726    0.898866
      5          6           0       -2.569672   -0.146032    0.000032
      6          8           0       -2.624190   -1.389342    0.000118
      7          7           0       -1.249715    0.448750   -0.000020
      8          1           0       -1.124178    1.453389   -0.000091
      9          6           0        0.056823   -0.413930    0.000035
     10          1           0        0.006670   -1.066365   -0.882745
     11          1           0        0.006690   -1.066225    0.882920
     12          6           0        1.555844    0.302030   -0.000036
     13          8           0        1.634820    1.536179   -0.000136
     14          7           0        2.720606   -0.549275    0.000023
     15          1           0        2.508341   -1.540397    0.000107
     16          6           0        4.328341   -0.284312   -0.000012
     17          1           0        4.746738   -0.736884   -0.907598
     18          1           0        4.469595    0.799316   -0.000107
     19          1           0        4.746753   -0.736725    0.907648
 ---------------------------------------------------------------------
 Rotational constants (GHZ):      5.0402777      0.5306317      0.4845632
 Leave Link  202 at Wed Sep  3 14:21:56 2025, MaxMem=  8053063680 cpu:         0.1
 (Enter /nexus/posix0/bmm/home/sucerqdl/sw/g09/l301.exe)
 Standard basis: 6-31+G (6D, 7F)
 Ernie: Thresh=  0.10000D-02 Tol=  0.10000D-05 Strict=F.
 There are   137 symmetry adapted cartesian basis functions of A   symmetry.
 There are   137 symmetry adapted basis functions of A   symmetry.
   137 basis functions,   274 primitive gaussians,   137 cartesian basis functions
    35 alpha electrons       35 beta electrons
       nuclear repulsion energy       416.3321560542 Hartrees.
 IExCor= 3226 DFT=T Ex+Corr=BMK ExCW=0 ScaHFX=  0.420000
 ScaDFX=  1.000000  1.000000  1.000000  1.000000 ScalE2=  1.000000  1.000000
 IRadAn=      0 IRanWt=     -1 IRanGd=            0 ICorTp=0 IEmpDi=  4
 NAtoms=   19 NActive=   19 NUniq=   19 SFac= 1.00D+00 NAtFMM=   60 NAOKFM=F Big=F
 Integral buffers will be    131072 words long.
 Raffenetti 2 integral format.
 Two-electron integral symmetry is turned on.
 Leave Link  301 at Wed Sep  3 14:21:57 2025, MaxMem=  8053063680 cpu:         0.7
 (Enter /nexus/posix0/bmm/home/sucerqdl/sw/g09/l302.exe)
 NPDir=0 NMtPBC=     1 NCelOv=     1 NCel=       1 NClECP=     1 NCelD=      1
         NCelK=      1 NCelE2=     1 NClLst=     1 CellRange=     0.0.
 One-electron integrals computed using PRISM.
 NBasis=   137 RedAO= T EigKep=  3.50D-05  NBF=   137
 NBsUse=   137 1.00D-06 EigRej= -1.00D+00 NBFU=   137
 Precomputing XC quadrature grid using
 IXCGrd= 4 IRadAn=           0 IRanWt=          -1 IRanGd=           0 AccXCQ= 0.00D+00.
 Generated NRdTot=       0 NPtTot=           0 NUsed=           0 NTot=          32
 NSgBfM=   136   136   136   136   137 MxSgAt=    19 MxSgA2=    19.
 Leave Link  302 at Wed Sep  3 14:21:57 2025, MaxMem=  8053063680 cpu:         2.0
 (Enter /nexus/posix0/bmm/home/sucerqdl/sw/g09/l303.exe)
 DipDrv:  MaxL=1.
 Leave Link  303 at Wed Sep  3 14:21:57 2025, MaxMem=  8053063680 cpu:         0.4
 (Enter /nexus/posix0/bmm/home/sucerqdl/sw/g09/l401.exe)
 ExpMin= 4.38D-02 ExpMax= 5.48D+03 ExpMxC= 8.25D+02 IAcc=2 IRadAn=         4 AccDes= 0.00D+00
 Harris functional with IExCor= 1009 and IRadAn=       4 diagonalized for initial guess.
 HarFok:  IExCor= 1009 AccDes= 0.00D+00 IRadAn=         4 IDoV= 1 UseB2=F ITyADJ=14
 ICtDFT=  3500011 ScaDFX=  1.000000  1.000000  1.000000  1.000000
 FoFCou: FMM=F IPFlag=           0 FMFlag=      100000 FMFlg1=           0
         NFxFlg=           0 DoJE=T BraDBF=F KetDBF=T FulRan=T
         wScrn=  0.000000 ICntrl=     500 IOpCl=  0 I1Cent=   200000004 NGrid=           0
         NMat0=    1 NMatS0=      1 NMatT0=    0 NMatD0=    1 NMtDS0=    0 NMtDT0=    0
 Petite list used in FoFCou.
 Harris En= -455.930393400775    
 JPrj=0 DoOrth=F DoCkMO=F.
 Leave Link  401 at Wed Sep  3 14:21:57 2025, MaxMem=  8053063680 cpu:         3.3
 (Enter /nexus/posix0/bmm/home/sucerqdl/sw/g09/l502.exe)
 Closed shell SCF:
 Using DIIS extrapolation, IDIIS=  1040.
 Integral symmetry usage will be decided dynamically.
 Keep R1 ints in memory in canonical form, NReq=46076400.
 IVT=       78102 IEndB=       78102 NGot=  8053063680 MDV=  8008301248
 LenX=  8008301248 LenY=  8008282038
 Requested convergence on RMS density matrix=1.00D-08 within 128 cycles.
 Requested convergence on MAX density matrix=1.00D-06.
 Requested convergence on             energy=1.00D-06.
 No special actions if energy rises.
 FoFCou: FMM=F IPFlag=           0 FMFlag=           0 FMFlg1=           0
         NFxFlg=           0 DoJE=F BraDBF=F KetDBF=F FulRan=T
         wScrn=  0.000000 ICntrl=     600 IOpCl=  0 I1Cent=           0 NGrid=           0
         NMat0=    1 NMatS0=   9453 NMatT0=    0 NMatD0=    1 NMtDS0=    0 NMtDT0=    0
 Symmetry not used in FoFCou.

 Cycle   1  Pass 1  IDiag  1:
 E= -455.838867165671    
 DIIS: error= 3.84D-02 at cycle   1 NSaved=   1.
 NSaved= 1 IEnMin= 1 EnMin= -455.838867165671     IErMin= 1 ErrMin= 3.84D-02
 ErrMax= 3.84D-02  0.00D+00 EMaxC= 1.00D-01 BMatC= 2.71D-01 BMatP= 2.71D-01
 IDIUse=3 WtCom= 6.16D-01 WtEn= 3.84D-01
 Coeff-Com:  0.100D+01
 Coeff-En:   0.100D+01
 Coeff:      0.100D+01
 Gap=     0.319 Goal=   None    Shift=    0.000
 GapD=    0.319 DampG=1.000 DampE=0.500 DampFc=0.5000 IDamp=-1.
 Damping current iteration by 5.00D-01
 RMSDP=2.70D-02 MaxDP=1.35D+00              OVMax= 2.90D-01

 Cycle   2  Pass 1  IDiag  1:
 E= -455.891981600898     Delta-E=       -0.053114435227 Rises=F Damp=T
 DIIS: error= 2.10D-02 at cycle   2 NSaved=   2.
 NSaved= 2 IEnMin= 2 EnMin= -455.891981600898     IErMin= 2 ErrMin= 2.10D-02
 ErrMax= 2.10D-02  0.00D+00 EMaxC= 1.00D-01 BMatC= 4.89D-02 BMatP= 2.71D-01
 IDIUse=3 WtCom= 7.90D-01 WtEn= 2.10D-01
 Coeff-Com:  0.256D+00 0.744D+00
 Coeff-En:   0.385D+00 0.615D+00
 Coeff:      0.283D+00 0.717D+00
 Gap=     0.324 Goal=   None    Shift=    0.000
 RMSDP=1.18D-02 MaxDP=7.08D-01 DE=-5.31D-02 OVMax= 1.52D-01

 Cycle   3  Pass 1  IDiag  1:
 E= -456.062584015111     Delta-E=       -0.170602414213 Rises=F Damp=F
 DIIS: error= 1.28D-02 at cycle   3 NSaved=   3.
 NSaved= 3 IEnMin= 3 EnMin= -456.062584015111     IErMin= 3 ErrMin= 1.28D-02
 ErrMax= 1.28D-02  0.00D+00 EMaxC= 1.00D-01 BMatC= 1.63D-02 BMatP= 4.89D-02
 IDIUse=3 WtCom= 8.72D-01 WtEn= 1.28D-01
 Coeff-Com:  0.102D+00 0.370D+00 0.528D+00
 Coeff-En:   0.000D+00 0.000D+00 0.100D+01
 Coeff:      0.888D-01 0.323D+00 0.589D+00
 Gap=     0.331 Goal=   None    Shift=    0.000
 RMSDP=1.55D-03 MaxDP=2.98D-02 DE=-1.71D-01 OVMax= 4.21D-02

 Cycle   4  Pass 1  IDiag  1:
 E= -456.076197221716     Delta-E=       -0.013613206606 Rises=F Damp=F
 DIIS: error= 4.56D-03 at cycle   4 NSaved=   4.
 NSaved= 4 IEnMin= 4 EnMin= -456.076197221716     IErMin= 4 ErrMin= 4.56D-03
 ErrMax= 4.56D-03  0.00D+00 EMaxC= 1.00D-01 BMatC= 2.37D-03 BMatP= 1.63D-02
 IDIUse=3 WtCom= 9.54D-01 WtEn= 4.56D-02
 Coeff-Com:  0.209D-01 0.398D-01 0.279D+00 0.660D+00
 Coeff-En:   0.000D+00 0.000D+00 0.673D-01 0.933D+00
 Coeff:      0.200D-01 0.380D-01 0.270D+00 0.673D+00
 Gap=     0.329 Goal=   None    Shift=    0.000
 RMSDP=6.25D-04 MaxDP=2.19D-02 DE=-1.36D-02 OVMax= 1.21D-02

 Cycle   5  Pass 1  IDiag  1:
 E= -456.078040144107     Delta-E=       -0.001842922391 Rises=F Damp=F
 DIIS: error= 1.20D-03 at cycle   5 NSaved=   5.
 NSaved= 5 IEnMin= 5 EnMin= -456.078040144107     IErMin= 5 ErrMin= 1.20D-03
 ErrMax= 1.20D-03  0.00D+00 EMaxC= 1.00D-01 BMatC= 1.85D-04 BMatP= 2.37D-03
 IDIUse=3 WtCom= 9.88D-01 WtEn= 1.20D-02
 Coeff-Com:  0.361D-02-0.151D-01 0.912D-01 0.343D+00 0.577D+00
 Coeff-En:   0.000D+00 0.000D+00 0.000D+00 0.000D+00 0.100D+01
 Coeff:      0.357D-02-0.149D-01 0.901D-01 0.339D+00 0.582D+00
 Gap=     0.325 Goal=   None    Shift=    0.000
 RMSDP=2.49D-04 MaxDP=1.42D-02 DE=-1.84D-03 OVMax= 3.84D-03

 Cycle   6  Pass 1  IDiag  1:
 E= -456.078212458494     Delta-E=       -0.000172314386 Rises=F Damp=F
 DIIS: error= 2.56D-04 at cycle   6 NSaved=   6.
 NSaved= 6 IEnMin= 6 EnMin= -456.078212458494     IErMin= 6 ErrMin= 2.56D-04
 ErrMax= 2.56D-04  0.00D+00 EMaxC= 1.00D-01 BMatC= 1.04D-05 BMatP= 1.85D-04
 IDIUse=3 WtCom= 9.97D-01 WtEn= 2.56D-03
 Coeff-Com:  0.179D-02-0.970D-02 0.258D-01 0.982D-01 0.241D+00 0.643D+00
 Coeff-En:   0.000D+00 0.000D+00 0.000D+00 0.000D+00 0.000D+00 0.100D+01
 Coeff:      0.178D-02-0.967D-02 0.258D-01 0.980D-01 0.240D+00 0.644D+00
 Gap=     0.325 Goal=   None    Shift=    0.000
 RMSDP=8.37D-05 MaxDP=4.42D-03 DE=-1.72D-04 OVMax= 5.11D-04

 Cycle   7  Pass 1  IDiag  1:
 E= -456.078221254770     Delta-E=       -0.000008796276 Rises=F Damp=F
 DIIS: error= 8.98D-05 at cycle   7 NSaved=   7.
 NSaved= 7 IEnMin= 7 EnMin= -456.078221254770     IErMin= 7 ErrMin= 8.98D-05
 ErrMax= 8.98D-05  0.00D+00 EMaxC= 1.00D-01 BMatC= 1.30D-06 BMatP= 1.04D-05
 IDIUse=1 WtCom= 1.00D+00 WtEn= 0.00D+00
 Coeff-Com:  0.706D-03-0.183D-02-0.493D-02-0.265D-01-0.607D-02 0.217D+00
 Coeff-Com:  0.822D+00
 Coeff:      0.706D-03-0.183D-02-0.493D-02-0.265D-01-0.607D-02 0.217D+00
 Coeff:      0.822D+00
 Gap=     0.325 Goal=   None    Shift=    0.000
 RMSDP=3.27D-05 MaxDP=1.08D-03 DE=-8.80D-06 OVMax= 4.26D-04

 Cycle   8  Pass 1  IDiag  1:
 E= -456.078222401966     Delta-E=       -0.000001147196 Rises=F Damp=F
 DIIS: error= 4.84D-05 at cycle   8 NSaved=   8.
 NSaved= 8 IEnMin= 8 EnMin= -456.078222401966     IErMin= 8 ErrMin= 4.84D-05
 ErrMax= 4.84D-05  0.00D+00 EMaxC= 1.00D-01 BMatC= 2.11D-07 BMatP= 1.30D-06
 IDIUse=1 WtCom= 1.00D+00 WtEn= 0.00D+00
 Coeff-Com:  0.310D-03-0.409D-03-0.463D-02-0.230D-01-0.216D-01 0.678D-01
 Coeff-Com:  0.481D+00 0.501D+00
 Coeff:      0.310D-03-0.409D-03-0.463D-02-0.230D-01-0.216D-01 0.678D-01
 Coeff:      0.481D+00 0.501D+00
 Gap=     0.325 Goal=   None    Shift=    0.000
 RMSDP=1.33D-05 MaxDP=5.91D-04 DE=-1.15D-06 OVMax= 1.71D-04

 Cycle   9  Pass 1  IDiag  1:
 E= -456.078222561472     Delta-E=       -0.000000159506 Rises=F Damp=F
 DIIS: error= 1.63D-05 at cycle   9 NSaved=   9.
 NSaved= 9 IEnMin= 9 EnMin= -456.078222561472     IErMin= 9 ErrMin= 1.63D-05
 ErrMax= 1.63D-05  0.00D+00 EMaxC= 1.00D-01 BMatC= 2.50D-08 BMatP= 2.11D-07
 IDIUse=1 WtCom= 1.00D+00 WtEn= 0.00D+00
 Coeff-Com: -0.320D-04 0.246D-03-0.580D-03-0.320D-02-0.777D-02-0.342D-01
 Coeff-Com:  0.109D-01 0.268D+00 0.767D+00
 Coeff:     -0.320D-04 0.246D-03-0.580D-03-0.320D-02-0.777D-02-0.342D-01
 Coeff:      0.109D-01 0.268D+00 0.767D+00
 Gap=     0.325 Goal=   None    Shift=    0.000
 RMSDP=2.84D-06 MaxDP=5.50D-05 DE=-1.60D-07 OVMax= 7.12D-05

 Cycle  10  Pass 1  IDiag  1:
 E= -456.078222586531     Delta-E=       -0.000000025059 Rises=F Damp=F
 DIIS: error= 2.48D-06 at cycle  10 NSaved=  10.
 NSaved=10 IEnMin=10 EnMin= -456.078222586531     IErMin=10 ErrMin= 2.48D-06
 ErrMax= 2.48D-06  0.00D+00 EMaxC= 1.00D-01 BMatC= 6.17D-10 BMatP= 2.50D-08
 IDIUse=1 WtCom= 1.00D+00 WtEn= 0.00D+00
 Coeff-Com: -0.233D-04 0.105D-03-0.290D-04-0.350D-03-0.195D-02-0.144D-01
 Coeff-Com: -0.111D-01 0.687D-01 0.273D+00 0.686D+00
 Coeff:     -0.233D-04 0.105D-03-0.290D-04-0.350D-03-0.195D-02-0.144D-01
 Coeff:     -0.111D-01 0.687D-01 0.273D+00 0.686D+00
 Gap=     0.325 Goal=   None    Shift=    0.000
 RMSDP=6.65D-07 MaxDP=1.34D-05 DE=-2.51D-08 OVMax= 7.64D-06

 Cycle  11  Pass 1  IDiag  1:
 E= -456.078222587140     Delta-E=       -0.000000000608 Rises=F Damp=F
 DIIS: error= 9.70D-07 at cycle  11 NSaved=  11.
 NSaved=11 IEnMin=11 EnMin= -456.078222587140     IErMin=11 ErrMin= 9.70D-07
 ErrMax= 9.70D-07  0.00D+00 EMaxC= 1.00D-01 BMatC= 1.09D-10 BMatP= 6.17D-10
 IDIUse=1 WtCom= 1.00D+00 WtEn= 0.00D+00
 Coeff-Com: -0.686D-05 0.148D-04 0.735D-04 0.282D-03 0.243D-03-0.161D-02
 Coeff-Com: -0.648D-02-0.916D-02 0.134D-01 0.316D+00 0.687D+00
 Coeff:     -0.686D-05 0.148D-04 0.735D-04 0.282D-03 0.243D-03-0.161D-02
 Coeff:     -0.648D-02-0.916D-02 0.134D-01 0.316D+00 0.687D+00
 Gap=     0.325 Goal=   None    Shift=    0.000
 RMSDP=2.05D-07 MaxDP=8.60D-06 DE=-6.08D-10 OVMax= 4.25D-06

 Cycle  12  Pass 1  IDiag  1:
 E= -456.078222587241     Delta-E=       -0.000000000102 Rises=F Damp=F
 DIIS: error= 2.43D-07 at cycle  12 NSaved=  12.
 NSaved=12 IEnMin=12 EnMin= -456.078222587241     IErMin=12 ErrMin= 2.43D-07
 ErrMax= 2.43D-07  0.00D+00 EMaxC= 1.00D-01 BMatC= 9.24D-12 BMatP= 1.09D-10
 IDIUse=1 WtCom= 1.00D+00 WtEn= 0.00D+00
 Coeff-Com: -0.164D-05 0.101D-05 0.343D-04 0.134D-03 0.221D-03 0.215D-03
 Coeff-Com: -0.232D-02-0.783D-02-0.126D-01 0.977D-01 0.308D+00 0.617D+00
 Coeff:     -0.164D-05 0.101D-05 0.343D-04 0.134D-03 0.221D-03 0.215D-03
 Coeff:     -0.232D-02-0.783D-02-0.126D-01 0.977D-01 0.308D+00 0.617D+00
 Gap=     0.325 Goal=   None    Shift=    0.000
 RMSDP=4.94D-08 MaxDP=1.97D-06 DE=-1.02D-10 OVMax= 6.55D-07

 Cycle  13  Pass 1  IDiag  1:
 E= -456.078222587253     Delta-E=       -0.000000000011 Rises=F Damp=F
 DIIS: error= 6.90D-08 at cycle  13 NSaved=  13.
 NSaved=13 IEnMin=13 EnMin= -456.078222587253     IErMin=13 ErrMin= 6.90D-08
 ErrMax= 6.90D-08  0.00D+00 EMaxC= 1.00D-01 BMatC= 8.05D-13 BMatP= 9.24D-12
 IDIUse=1 WtCom= 1.00D+00 WtEn= 0.00D+00
 Coeff-Com:  0.237D-06-0.148D-05 0.622D-05 0.199D-04 0.673D-04 0.312D-03
 Coeff-Com: -0.210D-03-0.186D-02-0.727D-02-0.210D-02 0.377D-01 0.251D+00
 Coeff-Com:  0.722D+00
 Coeff:      0.237D-06-0.148D-05 0.622D-05 0.199D-04 0.673D-04 0.312D-03
 Coeff:     -0.210D-03-0.186D-02-0.727D-02-0.210D-02 0.377D-01 0.251D+00
 Coeff:      0.722D+00
 Gap=     0.325 Goal=   None    Shift=    0.000
 RMSDP=2.51D-08 MaxDP=9.41D-07 DE=-1.15D-11 OVMax= 1.82D-07

 Cycle  14  Pass 1  IDiag  1:
 E= -456.078222587261     Delta-E=       -0.000000000008 Rises=F Damp=F
 DIIS: error= 1.18D-08 at cycle  14 NSaved=  14.
 NSaved=14 IEnMin=14 EnMin= -456.078222587261     IErMin=14 ErrMin= 1.18D-08
 ErrMax= 1.18D-08  0.00D+00 EMaxC= 1.00D-01 BMatC= 1.86D-14 BMatP= 8.05D-13
 IDIUse=1 WtCom= 1.00D+00 WtEn= 0.00D+00
 Coeff-Com:  0.108D-06-0.286D-06-0.145D-06-0.242D-05 0.382D-05 0.471D-04
 Coeff-Com:  0.557D-04-0.802D-04-0.677D-03-0.454D-02-0.605D-02 0.198D-01
 Coeff-Com:  0.137D+00 0.854D+00
 Coeff:      0.108D-06-0.286D-06-0.145D-06-0.242D-05 0.382D-05 0.471D-04
 Coeff:      0.557D-04-0.802D-04-0.677D-03-0.454D-02-0.605D-02 0.198D-01
 Coeff:      0.137D+00 0.854D+00
 Gap=     0.325 Goal=   None    Shift=    0.000
 RMSDP=3.13D-09 MaxDP=5.62D-08 DE=-7.84D-12 OVMax= 4.67D-08

 SCF Done:  E(RBMK) =  -456.078222587     A.U. after   14 cycles
            NFock= 14  Conv=0.31D-08     -V/T= 2.0084
 KE= 4.522742888439D+02 PE=-1.896979190675D+03 EE= 5.722945231899D+02
 Leave Link  502 at Wed Sep  3 14:22:03 2025, MaxMem=  8053063680 cpu:        81.7
 (Enter /nexus/posix0/bmm/home/sucerqdl/sw/g09/l801.exe)
 DoSCS=F DFT=T ScalE2(SS,OS)=  1.000000  1.000000
 Range of M.O.s used for correlation:     1   137
 NBasis=   137 NAE=    35 NBE=    35 NFC=     0 NFV=     0
 NROrb=    137 NOA=    35 NOB=    35 NVA=   102 NVB=   102

 **** Warning!!: The largest alpha MO coefficient is  0.62439510D+02

 Leave Link  801 at Wed Sep  3 14:22:03 2025, MaxMem=  8053063680 cpu:         0.3
 (Enter /nexus/posix0/bmm/home/sucerqdl/sw/g09/l1101.exe)
 Using compressed storage, NAtomX=    19.
 Will process     20 centers per pass.
 Leave Link 1101 at Wed Sep  3 14:22:03 2025, MaxMem=  8053063680 cpu:         1.6
 (Enter /nexus/posix0/bmm/home/sucerqdl/sw/g09/l1102.exe)
 Symmetrizing basis deriv contribution to polar:
 IMax=3 JMax=2 DiffMx= 0.00D+00
 Leave Link 1102 at Wed Sep  3 14:22:04 2025, MaxMem=  8053063680 cpu:         0.5
 (Enter /nexus/posix0/bmm/home/sucerqdl/sw/g09/l1110.exe)
 Forming Gx(P) for the SCF density, NAtomX=    19.
 Integral derivatives from FoFJK, PRISM(SPDF).
 Do as many integral derivatives as possible in FoFJK.
 G2DrvN: MDV=    8053063424.
 G2DrvN: will do    20 centers at a time, making    1 passes.
 Calling FoFCou, ICntrl=  3107 FMM=F I1Cent=   0 AccDes= 0.00D+00.
 FoFJK:  IHMeth= 1 ICntrl=    3107 DoSepK=F KAlg= 0 I1Cent=   0 FoldK=F
 IRaf=         0 NMat=   1 IRICut=       1 DoRegI=T DoRafI=F ISym2E= 0.
 FoFCou: FMM=F IPFlag=           0 FMFlag=      100000 FMFlg1=           0
         NFxFlg=           0 DoJE=F BraDBF=F KetDBF=F FulRan=T
         wScrn=  0.000000 ICntrl=    3107 IOpCl=  0 I1Cent=           0 NGrid=           0
         NMat0=    1 NMatS0=      1 NMatT0=    0 NMatD0=    1 NMtDS0=    0 NMtDT0=    0
 Symmetry not used in FoFCou.
 End of G2Drv F.D. properties file   721 does not exist.
 End of G2Drv F.D. properties file   722 does not exist.
 End of G2Drv F.D. properties file   788 does not exist.
 Leave Link 1110 at Wed Sep  3 14:22:12 2025, MaxMem=  8053063680 cpu:       132.9
 (Enter /nexus/posix0/bmm/home/sucerqdl/sw/g09/l1002.exe)
 Minotr:  Closed shell wavefunction.
          IDoAtm=1111111111111111111
          Direct CPHF calculation.
          Differentiating once with respect to nuclear coordinates.
          Requested convergence is 1.0D-08 RMS, and 1.0D-07 maximum.
          Secondary convergence is 1.0D-12 RMS, and 1.0D-12 maximum.
          NewPWx=T KeepS1=F KeepF1=F KeepIn=T MapXYZ=F SortEE=F KeepMc=T.
          MDV=    8053063349 using IRadAn=       2.
 Generate precomputed XC quadrature information.
 Keep R1 ints in memory in canonical form, NReq=46004215.
 FoFCou: FMM=F IPFlag=           0 FMFlag=           0 FMFlg1=           0
         NFxFlg=           0 DoJE=F BraDBF=F KetDBF=F FulRan=T
         wScrn=  0.000000 ICntrl=     600 IOpCl=  0 I1Cent=           0 NGrid=           0
         NMat0=    1 NMatS0=   9453 NMatT0=    0 NMatD0=    1 NMtDS0=    0 NMtDT0=    0
 Symmetry not used in FoFCou.
          Solving linear equations simultaneously, MaxMat=       0.
          There are    60 degrees of freedom in the 1st order CPHF.  IDoFFX=6 NUNeed=     0.
     54 vectors produced by pass  0 Test12= 5.95D-15 1.67D-09 XBig12= 1.38D-01 9.70D-02.
 AX will form    54 AO Fock derivatives at one time.
     54 vectors produced by pass  1 Test12= 5.95D-15 1.67D-09 XBig12= 9.03D-03 3.05D-02.
     54 vectors produced by pass  2 Test12= 5.95D-15 1.67D-09 XBig12= 7.34D-05 1.81D-03.
     54 vectors produced by pass  3 Test12= 5.95D-15 1.67D-09 XBig12= 2.48D-07 7.83D-05.
     54 vectors produced by pass  4 Test12= 5.95D-15 1.67D-09 XBig12= 6.78D-10 4.67D-06.
     54 vectors produced by pass  5 Test12= 5.95D-15 1.67D-09 XBig12= 1.75D-12 2.09D-07.
     22 vectors produced by pass  6 Test12= 5.95D-15 1.67D-09 XBig12= 8.15D-15 2.02D-08.
      3 vectors produced by pass  7 Test12= 5.95D-15 1.67D-09 XBig12= 2.04D-16 2.15D-09.
      1 vectors produced by pass  8 Test12= 5.95D-15 1.67D-09 XBig12= 2.54D-16 2.59D-09.
 InvSVY:  IOpt=1 It=  1 EMax= 3.33D-16
 Solved reduced A of dimension   350 with    60 vectors.
 End of Minotr F.D. properties file   721 does not exist.
 End of Minotr F.D. properties file   722 does not exist.
 End of Minotr F.D. properties file   788 does not exist.
 Leave Link 1002 at Wed Sep  3 14:22:20 2025, MaxMem=  8053063680 cpu:       133.1
 (Enter /nexus/posix0/bmm/home/sucerqdl/sw/g09/l601.exe)
 Copying SCF densities to generalized density rwf, IOpCl= 0 IROHF=0.

 **********************************************************************

            Population analysis using the SCF density.

 **********************************************************************

 Orbital symmetries:
       Occupied  (A) (A) (A) (A) (A) (A) (A) (A) (A) (A) (A) (A)
                 (A) (A) (A) (A) (A) (A) (A) (A) (A) (A) (A) (A)
                 (A) (A) (A) (A) (A) (A) (A) (A) (A) (A) (A)
       Virtual   (A) (A) (A) (A) (A) (A) (A) (A) (A) (A) (A) (A)
                 (A) (A) (A) (A) (A) (A) (A) (A) (A) (A) (A) (A)
                 (A) (A) (A) (A) (A) (A) (A) (A) (A) (A) (A) (A)
                 (A) (A) (A) (A) (A) (A) (A) (A) (A) (A) (A) (A)
                 (A) (A) (A) (A) (A) (A) (A) (A) (A) (A) (A) (A)
                 (A) (A) (A) (A) (A) (A) (A) (A) (A) (A) (A) (A)
                 (A) (A) (A) (A) (A) (A) (A) (A) (A) (A) (A) (A)
                 (A) (A) (A) (A) (A) (A) (A) (A) (A) (A) (A) (A)
                 (A) (A) (A) (A) (A) (A)
 The electronic state is 1-A.
 Alpha  occ. eigenvalues --  -19.54218 -19.52582 -14.72594 -14.71888 -10.63327
 Alpha  occ. eigenvalues --  -10.61943 -10.55020 -10.54072 -10.50149  -1.15058
 Alpha  occ. eigenvalues --   -1.13687  -0.98197  -0.97292  -0.81061  -0.79013
 Alpha  occ. eigenvalues --   -0.76411  -0.63902  -0.63246  -0.57511  -0.52285
 Alpha  occ. eigenvalues --   -0.52189  -0.51365  -0.50059  -0.49221  -0.48264
 Alpha  occ. eigenvalues --   -0.47620  -0.45745  -0.44576  -0.43929  -0.43273
 Alpha  occ. eigenvalues --   -0.40970  -0.31520  -0.30776  -0.29781  -0.29445
 Alpha virt. eigenvalues --    0.03047   0.03061   0.03458   0.03627   0.04562
 Alpha virt. eigenvalues --    0.06687   0.07149   0.07880   0.08238   0.08964
 Alpha virt. eigenvalues --    0.09103   0.10114   0.11060   0.11639   0.12113
 Alpha virt. eigenvalues --    0.12902   0.13567   0.14364   0.15557   0.16023
 Alpha virt. eigenvalues --    0.16436   0.17539   0.18537   0.20024   0.20625
 Alpha virt. eigenvalues --    0.21059   0.22829   0.22894   0.23143   0.23632
 Alpha virt. eigenvalues --    0.24050   0.25033   0.26692   0.27183   0.27850
 Alpha virt. eigenvalues --    0.27976   0.29029   0.29701   0.31087   0.31455
 Alpha virt. eigenvalues --    0.31681   0.33300   0.34400   0.35983   0.36286
 Alpha virt. eigenvalues --    0.36362   0.37251   0.38882   0.40186   0.40583
 Alpha virt. eigenvalues --    0.43232   0.45202   0.46296   0.47372   0.52439
 Alpha virt. eigenvalues --    0.55753   0.66244   0.69151   0.69209   0.70658
 Alpha virt. eigenvalues --    0.71211   0.74084   0.77102   0.79017   0.80027
 Alpha virt. eigenvalues --    0.82896   0.84457   0.85804   0.91538   0.93530
 Alpha virt. eigenvalues --    0.98601   0.99553   1.01454   1.02339   1.09814
 Alpha virt. eigenvalues --    1.11610   1.12559   1.12749   1.13207   1.15835
 Alpha virt. eigenvalues --    1.16751   1.19097   1.21915   1.23288   1.24895
 Alpha virt. eigenvalues --    1.28699   1.33824   1.34052   1.36388   1.36714
 Alpha virt. eigenvalues --    1.42090   1.43763   1.46242   1.50065   1.51006
 Alpha virt. eigenvalues --    1.54428   1.56525   1.59829   1.67026   1.83495
 Alpha virt. eigenvalues --    2.02147   2.10970
          Condensed to atoms (all electrons):
               1          2          3          4          5          6
     1  C    6.357923   0.345428   0.403416   0.403427  -0.304039  -0.135299
     2  H    0.345428   0.527374  -0.026175  -0.026175  -0.030357   0.006704
     3  H    0.403416  -0.026175   0.467530  -0.022764  -0.046737  -0.003929
     4  H    0.403427  -0.026175  -0.022764   0.467525  -0.046746  -0.003930
     5  C   -0.304039  -0.030357  -0.046737  -0.046746   5.678245   0.436420
     6  O   -0.135299   0.006704  -0.003929  -0.003930   0.436420   8.472956
     7  N   -0.252246   0.006832   0.000578   0.000579  -0.057429  -0.216113
     8  H    0.011665  -0.000156   0.000005   0.000005   0.019915   0.006187
     9  C   -0.170920   0.000819  -0.003392  -0.003393  -0.691932  -0.044180
    10  H   -0.001766   0.000000   0.000009  -0.000003   0.001061   0.000934
    11  H   -0.001767   0.000000  -0.000003   0.000009   0.001061   0.000934
    12  C    0.067960  -0.000121  -0.000318  -0.000319   0.381394   0.013200
    13  O   -0.001985   0.000000   0.000001   0.000001   0.005655  -0.000196
    14  N   -0.000575   0.000005  -0.000001  -0.000001   0.007467  -0.001824
    15  H    0.000080   0.000000   0.000000   0.000000   0.001699   0.000079
    16  C    0.000249   0.000001   0.000000   0.000000   0.003773  -0.000135
    17  H    0.000001   0.000000   0.000000   0.000000   0.000021   0.000000
    18  H   -0.000001   0.000000   0.000000   0.000000  -0.000044   0.000000
    19  H    0.000001   0.000000   0.000000   0.000000   0.000021   0.000000
               7          8          9         10         11         12
     1  C   -0.252246   0.011665  -0.170920  -0.001766  -0.001767   0.067960
     2  H    0.006832  -0.000156   0.000819   0.000000   0.000000  -0.000121
     3  H    0.000578   0.000005  -0.003392   0.000009  -0.000003  -0.000318
     4  H    0.000579   0.000005  -0.003393  -0.000003   0.000009  -0.000319
     5  C   -0.057429   0.019915  -0.691932   0.001061   0.001061   0.381394
     6  O   -0.216113   0.006187  -0.044180   0.000934   0.000934   0.013200
     7  N    7.661601   0.260442   0.273997  -0.047999  -0.047999  -0.053512
     8  H    0.260442   0.318505  -0.051614   0.001727   0.001727   0.017870
     9  C    0.273997  -0.051614  10.600960   0.334623   0.334625  -3.284507
    10  H   -0.047999   0.001727   0.334623   0.496379  -0.037300  -0.002502
    11  H   -0.047999   0.001727   0.334625  -0.037300   0.496381  -0.002505
    12  C   -0.053512   0.017870  -3.284507  -0.002502  -0.002505   7.504936
    13  O    0.021476   0.003875   0.040646   0.000964   0.000964   0.240092
    14  N    0.013342   0.001918  -0.692950   0.014460   0.014460   0.503086
    15  H   -0.000014  -0.000004   0.052802  -0.000527  -0.000527  -0.045858
    16  C    0.002633   0.000464  -0.167321   0.002269   0.002269   0.001654
    17  H   -0.000016   0.000000   0.004574   0.000007  -0.000002  -0.002120
    18  H   -0.000027   0.000000  -0.009257  -0.000002  -0.000002  -0.009274
    19  H   -0.000016   0.000000   0.004573  -0.000002   0.000007  -0.002120
              13         14         15         16         17         18
     1  C   -0.001985  -0.000575   0.000080   0.000249   0.000001  -0.000001
     2  H    0.000000   0.000005   0.000000   0.000001   0.000000   0.000000
     3  H    0.000001  -0.000001   0.000000   0.000000   0.000000   0.000000
     4  H    0.000001  -0.000001   0.000000   0.000000   0.000000   0.000000
     5  C    0.005655   0.007467   0.001699   0.003773   0.000021  -0.000044
     6  O   -0.000196  -0.001824   0.000079  -0.000135   0.000000   0.000000
     7  N    0.021476   0.013342  -0.000014   0.002633  -0.000016  -0.000027
     8  H    0.003875   0.001918  -0.000004   0.000464   0.000000   0.000000
     9  C    0.040646  -0.692950   0.052802  -0.167321   0.004574  -0.009257
    10  H    0.000964   0.014460  -0.000527   0.002269   0.000007  -0.000002
    11  H    0.000964   0.014460  -0.000527   0.002269  -0.000002  -0.000002
    12  C    0.240092   0.503086  -0.045858   0.001654  -0.002120  -0.009274
    13  O    8.464549  -0.209127   0.009048  -0.025192   0.000025   0.005375
    14  N   -0.209127   7.574548   0.265047   0.187095  -0.039341  -0.038846
    15  H    0.009048   0.265047   0.389495  -0.026377  -0.000834   0.002258
    16  C   -0.025192   0.187095  -0.026377   5.254240   0.381712   0.407560
    17  H    0.000025  -0.039341  -0.000834   0.381712   0.504807  -0.023295
    18  H    0.005375  -0.038846   0.002258   0.407560  -0.023295   0.447917
    19  H    0.000025  -0.039341  -0.000833   0.381712  -0.034910  -0.023295
              19
     1  C    0.000001
     2  H    0.000000
     3  H    0.000000
     4  H    0.000000
     5  C    0.000021
     6  O    0.000000
     7  N   -0.000016
     8  H    0.000000
     9  C    0.004573
    10  H   -0.000002
    11  H    0.000007
    12  C   -0.002120
    13  O    0.000025
    14  N   -0.039341
    15  H   -0.000833
    16  C    0.381712
    17  H   -0.034910
    18  H   -0.023295
    19  H    0.504807
 Mulliken charges:
               1
     1  C   -0.721551
     2  H    0.195822
     3  H    0.231781
     4  H    0.231784
     5  C    0.640553
     6  O   -0.531809
     7  N   -0.566110
     8  H    0.407468
     9  C   -0.528152
    10  H    0.237668
    11  H    0.237667
    12  C    0.672963
    13  O   -0.556196
    14  N   -0.559422
    15  H    0.354466
    16  C   -0.406607
    17  H    0.209371
    18  H    0.240933
    19  H    0.209371
 Sum of Mulliken charges =   0.00000
 Mulliken charges with hydrogens summed into heavy atoms:
               1
     1  C   -0.062165
     5  C    0.640553
     6  O   -0.531809
     7  N   -0.158641
     9  C   -0.052816
    12  C    0.672963
    13  O   -0.556196
    14  N   -0.204956
    16  C    0.253068
 APT charges:
               1
     1  C   -1.722664
     2  H    0.399648
     3  H    0.648468
     4  H    0.648504
     5  C    0.471604
     6  O   -0.478939
     7  N   -0.714985
     8  H    0.574880
     9  C   -0.808750
    10  H    0.434489
    11  H    0.434489
    12  C    0.317462
    13  O   -0.532629
    14  N   -0.207788
    15  H    0.511832
    16  C   -1.733194
    17  H    0.652157
    18  H    0.453263
    19  H    0.652156
 Sum of APT charges =   0.00000
 APT charges with hydrogens summed into heavy atoms:
               1
     1  C   -0.026045
     5  C    0.471604
     6  O   -0.478939
     7  N   -0.140106
     9  C    0.060227
    12  C    0.317462
    13  O   -0.532629
    14  N    0.304044
    16  C    0.024382
 Electronic spatial extent (au):  <R**2>=           2248.2220
 Charge=              0.0000 electrons
 Dipole moment (field-independent basis, Debye):
    X=              2.5175    Y=             -0.5187    Z=              0.0001  Tot=              2.5704
 Quadrupole moment (field-independent basis, Debye-Ang):
   XX=            -37.3333   YY=            -61.7189   ZZ=            -55.6180
   XY=            -18.5046   XZ=              0.0013   YZ=              0.0006
 Traceless Quadrupole moment (field-independent basis, Debye-Ang):
   XX=             14.2234   YY=            -10.1622   ZZ=             -4.0613
   XY=            -18.5046   XZ=              0.0013   YZ=              0.0006
 Octapole moment (field-independent basis, Debye-Ang**2):
  XXX=             53.6969  YYY=             -1.2298  ZZZ=              0.0002  XYY=             10.3319
  XXY=             11.0435  XXZ=             -0.0012  XZZ=             -1.1539  YZZ=             -2.1570
  YYZ=              0.0000  XYZ=             -0.0007
 Hexadecapole moment (field-independent basis, Debye-Ang**3):
 XXXX=          -2069.3741 YYYY=           -305.1561 ZZZZ=            -75.4394 XXXY=           -111.3884
 XXXZ=              0.0140 YYYX=            -54.5893 YYYZ=              0.0101 ZZZX=              0.0101
 ZZZY=              0.0080 XXYY=           -516.9729 XXZZ=           -433.8973 YYZZ=            -61.8182
 XXYZ=              0.0056 YYXZ=              0.0072 ZZXY=              3.4984
 N-N= 4.163321560542D+02 E-N=-1.896979190697D+03  KE= 4.522742888439D+02
  Exact polarizability:   0.000   0.000   0.000   0.000   0.000   0.000
 Approx polarizability: 110.435  -1.924 113.883   0.000  -0.004  63.758
 No NMR shielding tensors so no spin-rotation constants.
 Leave Link  601 at Wed Sep  3 14:22:21 2025, MaxMem=  8053063680 cpu:         1.3
 (Enter /nexus/posix0/bmm/home/sucerqdl/sw/g09/l701.exe)
 Compute integral second derivatives.
 ... and contract with generalized density number  0.
 Leave Link  701 at Wed Sep  3 14:22:21 2025, MaxMem=  8053063680 cpu:         1.4
 (Enter /nexus/posix0/bmm/home/sucerqdl/sw/g09/l702.exe)
 L702 exits ... SP integral derivatives will be done elsewhere.
 Leave Link  702 at Wed Sep  3 14:22:21 2025, MaxMem=  8053063680 cpu:         0.3
 (Enter /nexus/posix0/bmm/home/sucerqdl/sw/g09/l703.exe)
 Compute integral second derivatives, UseDBF=F ICtDFT=           0.
 Integral derivatives from FoFJK, PRISM(SPDF).
 Calling FoFJK, ICntrl=    100147 FMM=F ISym2X=0 I1Cent= 0 IOpClX= 0 NMat=1 NMatS=1 NMatT=0.
 FoFJK:  IHMeth= 1 ICntrl=  100147 DoSepK=F KAlg= 0 I1Cent=   0 FoldK=F
 IRaf=         0 NMat=   1 IRICut=       1 DoRegI=T DoRafI=F ISym2E= 0.
 FoFCou: FMM=F IPFlag=           0 FMFlag=      100000 FMFlg1=         800
         NFxFlg=           0 DoJE=F BraDBF=F KetDBF=F FulRan=T
         wScrn=  0.000000 ICntrl=  100147 IOpCl=  0 I1Cent=           0 NGrid=           0
         NMat0=    1 NMatS0=      1 NMatT0=    0 NMatD0=    1 NMtDS0=    0 NMtDT0=    0
 Symmetry not used in FoFCou.
 Leave Link  703 at Wed Sep  3 14:22:27 2025, MaxMem=  8053063680 cpu:       102.9
 (Enter /nexus/posix0/bmm/home/sucerqdl/sw/g09/l716.exe)
 Dipole        = 9.90466112D-01-2.04081161D-01 2.16099864D-05
 Polarizability= 0.00000000D+00 0.00000000D+00 0.00000000D+00
                 0.00000000D+00 0.00000000D+00 0.00000000D+00
 ***** Axes restored to original set *****
 -------------------------------------------------------------------
 Center     Atomic                   Forces (Hartrees/Bohr)
 Number     Number              X              Y              Z
 -------------------------------------------------------------------
      1        6           0.060968352   -0.001695113   -0.000000231
      2        1           0.000502026   -0.000147911    0.000000024
      3        1           0.003828729    0.000538581    0.001580734
      4        1           0.003829342    0.000538913   -0.001580503
      5        6           0.006752577   -0.001876890    0.000000224
      6        8          -0.001672374    0.004881464   -0.000000445
      7        7          -0.001665332   -0.004047355    0.000000392
      8        1          -0.000371983    0.000138706   -0.000000072
      9        6          -0.002067196   -0.000082144    0.000000071
     10        1          -0.000349279    0.000938139   -0.000069946
     11        1          -0.000349285    0.000938139    0.000069701
     12        6           0.004860993    0.001587207   -0.000000144
     13        8           0.000418785   -0.004521078    0.000000377
     14        7          -0.003845165    0.004204184   -0.000000281
     15        1           0.000963181   -0.000218232    0.000000039
     16        6          -0.062434093   -0.001731892   -0.000000011
     17        1          -0.004239671    0.000359539    0.001581154
     18        1          -0.000890029   -0.000163445    0.000000015
     19        1          -0.004239577    0.000359186   -0.001581098
 -------------------------------------------------------------------
 Cartesian Forces:  Max     0.062434093 RMS     0.011757625
 FormGI is forming the generalized inverse of G from B-inverse, IUseBI=4.
 GSVD:  received Info=                   1 from GESDD.
 Leave Link  716 at Wed Sep  3 14:22:27 2025, MaxMem=  8053063680 cpu:         0.6
 (Enter /nexus/posix0/bmm/home/sucerqdl/sw/g09/l103.exe)

 GradGradGradGradGradGradGradGradGradGradGradGradGradGradGradGradGradGrad
 Berny optimization.
 Red2BG is reusing G-inverse.
 Internal  Forces:  Max     0.061752679 RMS     0.007615416
 Search for a local minimum.
 Step number   1 out of a maximum of   91
 All quantities printed in internal units (Hartrees-Bohrs-Radians)
 RMS Force = .20936D-02 SwitMx=.10000D-02 MixMth= 1
 Mixed Optimization -- RFO/linear search
 Second derivative matrix not updated -- analytic derivatives used.
 ITU=  0
     Eigenvalues ---    0.00041   0.00067   0.00175   0.00374   0.00703
     Eigenvalues ---    0.00785   0.02035   0.03070   0.04184   0.05088
     Eigenvalues ---    0.05255   0.05833   0.06190   0.06319   0.06558
     Eigenvalues ---    0.07137   0.07576   0.09432   0.10746   0.11000
     Eigenvalues ---    0.12094   0.12665   0.13266   0.13402   0.14134
     Eigenvalues ---    0.14338   0.16094   0.16132   0.16465   0.19341
     Eigenvalues ---    0.20166   0.20934   0.22335   0.23912   0.24711
     Eigenvalues ---    0.31022   0.34064   0.34198   0.35094   0.35125
     Eigenvalues ---    0.35514   0.35534   0.35836   0.36052   0.36656
     Eigenvalues ---    0.48018   0.48460   0.52593   0.74783   0.76885
     Eigenvalues --- 1000.000001000.000001000.000001000.000001000.00000
     Eigenvalues --- 1000.000001000.000001000.000001000.000001000.00000
     Eigenvalues --- 1000.000001000.000001000.000001000.000001000.00000
     Eigenvalues --- 1000.000001000.000001000.000001000.000001000.00000
     Eigenvalues --- 1000.000001000.000001000.000001000.000001000.00000
     Eigenvalues --- 1000.000001000.000001000.000001000.000001000.00000
     Eigenvalues --- 1000.00000
 RFO step:  Lambda=-1.49789495D-03 EMin= 4.14560427D-04
 Linear search not attempted -- first point.
 Iteration  1 RMS(Cart)=  0.02950635 RMS(Int)=  0.00059525
 Iteration  2 RMS(Cart)=  0.00050853 RMS(Int)=  0.00013222
 Iteration  3 RMS(Cart)=  0.00000036 RMS(Int)=  0.00013222
 Iteration  1 RMS(Cart)=  0.00002177 RMS(Int)=  0.00000491
 Iteration  2 RMS(Cart)=  0.00000272 RMS(Int)=  0.00000517
 Iteration  3 RMS(Cart)=  0.00000034 RMS(Int)=  0.00000524
 ITry= 1 IFail=0 DXMaxC= 7.92D-02 DCOld= 1.00D+10 DXMaxT= 3.00D-01 DXLimC= 3.00D+00 Rises=F
 Variable       Old X    -DE/DX   Delta X   Delta X   Delta X     New X
                                 (Linear)    (Quad)   (Total)
    R1        2.06841  -0.00018   0.00000  -0.00178  -0.00178   2.06663
    R2        2.07386  -0.00311   0.00000  -0.01015  -0.01015   2.06371
    R3        2.07386  -0.00312   0.00000  -0.01015  -0.01015   2.06371
    R4        3.23189  -0.00720   0.00000   0.02846   0.02859   3.26048
    R5       16.03564  -0.06175   0.00000   0.00000   0.00000  16.03564
    R6        2.35177  -0.00497   0.00000  -0.00423  -0.00423   2.34754
    R7        2.73590  -0.01190   0.00000  -0.02386  -0.02373   2.71216
    R8        1.91326   0.00013   0.00000  -0.00007  -0.00007   1.91319
    R9        2.95865  -0.01001   0.00000  -0.01586  -0.01573   2.94292
   R10        2.07654  -0.00051   0.00000  -0.00137  -0.00137   2.07517
   R11        2.07654  -0.00051   0.00000  -0.00137  -0.00137   2.07517
   R12        3.13926  -0.00660   0.00000   0.00142   0.00155   3.14080
   R13        2.33697  -0.00453   0.00000  -0.00366  -0.00366   2.33332
   R14        2.72631  -0.01258   0.00000  -0.02612  -0.02600   2.70032
   R15        1.91542   0.00012   0.00000   0.00047   0.00047   1.91588
   R16        3.07916  -0.01001   0.00000   0.00365   0.00379   3.08295
   R17        2.07319  -0.00323   0.00000  -0.01053  -0.01053   2.06266
   R18        2.06508  -0.00019   0.00000  -0.00151  -0.00151   2.06357
   R19        2.07319  -0.00323   0.00000  -0.01053  -0.01053   2.06266
    A1        1.94185   0.00164   0.00000   0.01468   0.01463   1.95647
    A2        1.94186   0.00164   0.00000   0.01467   0.01462   1.95648
    A3        1.97869   0.00054   0.00000   0.00628   0.00624   1.98493
    A4        1.91968   0.00290   0.00000   0.02482   0.02419   1.94388
    A5        1.83819  -0.00356   0.00000  -0.03204  -0.03229   1.80590
    A6        1.83818  -0.00356   0.00000  -0.03204  -0.03229   1.80589
    A7        1.97401  -0.00058   0.00000  -0.02179  -0.02184   1.95217
    A8        2.27120  -0.00207   0.00000   0.01454   0.01464   2.28584
    A9        2.03798   0.00266   0.00000   0.00725   0.00720   2.04518
   A10        2.11847   0.00212   0.00000  -0.00188  -0.00189   2.11657
   A11        2.13467  -0.00496   0.00000  -0.00446  -0.00443   2.13023
   A12        2.03005   0.00284   0.00000   0.00634   0.00633   2.03638
   A13        1.86402   0.00012   0.00000  -0.00307  -0.00310   1.86092
   A14        1.86402   0.00012   0.00000  -0.00307  -0.00310   1.86092
   A15        2.11244  -0.00167   0.00000   0.00485   0.00495   2.11740
   A16        1.86600   0.00041   0.00000   0.00616   0.00617   1.87217
   A17        1.87239   0.00062   0.00000  -0.00211  -0.00213   1.87026
   A18        1.87239   0.00062   0.00000  -0.00210  -0.00213   1.87026
   A19        2.08028   0.00328   0.00000   0.00113   0.00110   2.08138
   A20        2.06486  -0.00600   0.00000  -0.00558  -0.00552   2.05934
   A21        2.13805   0.00272   0.00000   0.00445   0.00442   2.14246
   A22        1.99097   0.00144   0.00000   0.00559   0.00555   1.99652
   A23        2.34710  -0.00101   0.00000   0.01117   0.01124   2.35835
   A24        1.94511  -0.00044   0.00000  -0.01676  -0.01679   1.92832
   A25        1.88518  -0.00397   0.00000  -0.02831  -0.02856   1.85662
   A26        1.86376  -0.00003   0.00000   0.00111   0.00104   1.86480
   A27        1.88518  -0.00397   0.00000  -0.02831  -0.02856   1.85662
   A28        1.93874   0.00194   0.00000   0.01353   0.01344   1.95218
   A29        1.94859   0.00353   0.00000   0.02460   0.02411   1.97270
   A30        1.93873   0.00194   0.00000   0.01353   0.01344   1.95218
    D1        3.14148   0.00000   0.00000   0.00003   0.00003   3.14151
    D2       -0.00012   0.00000   0.00000   0.00003   0.00003  -0.00009
    D3       -1.01474  -0.00007   0.00000   0.00018  -0.00009  -1.01482
    D4        2.12685  -0.00007   0.00000   0.00018  -0.00009   2.12676
    D5        1.01450   0.00007   0.00000  -0.00010   0.00016   1.01466
    D6       -2.12709   0.00007   0.00000  -0.00010   0.00016  -2.12693
    D7        0.00000   0.00000   0.00000   0.00000   0.00000   0.00000
    D8        3.14159   0.00000   0.00000   0.00000   0.00000  -3.14159
    D9        3.14159   0.00000   0.00000   0.00000   0.00000   3.14159
   D10       -0.00001   0.00000   0.00000   0.00000   0.00000   0.00000
   D11        0.99586   0.00029   0.00000   0.00210   0.00209   0.99795
   D12       -0.99587  -0.00029   0.00000  -0.00209  -0.00208  -0.99795
   D13        3.14159   0.00000   0.00000   0.00000   0.00000   3.14159
   D14       -2.14574   0.00029   0.00000   0.00210   0.00209  -2.14365
   D15        2.14572  -0.00029   0.00000  -0.00209  -0.00208   2.14364
   D16       -0.00001   0.00000   0.00000   0.00001   0.00001   0.00000
   D17        0.00000   0.00000   0.00000   0.00000   0.00000   0.00000
   D18        3.14159   0.00000   0.00000   0.00000   0.00000   3.14159
   D19        2.14175  -0.00053   0.00000  -0.00254  -0.00253   2.13922
   D20       -0.99984  -0.00053   0.00000  -0.00254  -0.00253  -1.00237
   D21       -2.14175   0.00053   0.00000   0.00254   0.00253  -2.13922
   D22        0.99984   0.00053   0.00000   0.00254   0.00253   1.00237
   D23        0.00000   0.00000   0.00000   0.00000   0.00000   0.00000
   D24       -3.14159   0.00000   0.00000   0.00000   0.00000  -3.14159
   D25        3.14159   0.00000   0.00000   0.00000   0.00000   3.14159
   D26        0.00000   0.00000   0.00000   0.00000   0.00000   0.00000
   D27       -2.08651  -0.00016   0.00000  -0.00150  -0.00133  -2.08784
   D28       -0.00001   0.00000   0.00000   0.00001   0.00001   0.00000
   D29        2.08650   0.00016   0.00000   0.00152   0.00135   2.08784
   D30        1.05509  -0.00016   0.00000  -0.00150  -0.00133   1.05376
   D31        3.14159   0.00000   0.00000   0.00001   0.00001  -3.14159
   D32       -1.05509   0.00016   0.00000   0.00152   0.00135  -1.05375
         Item               Value     Threshold  Converged?
 Maximum Force            0.005118     0.000450     NO 
 RMS     Force            0.002094     0.000300     NO 
 Maximum Displacement     0.079222     0.001800     NO 
 RMS     Displacement     0.029574     0.001200     NO 
 Predicted change in Energy=-7.478866D-04
 Lowest energy point so far.  Saving SCF results.
 GradGradGradGradGradGradGradGradGradGradGradGradGradGradGradGradGradGrad

 Leave Link  103 at Wed Sep  3 14:22:27 2025, MaxMem=  8053063680 cpu:         0.5
 (Enter /nexus/posix0/bmm/home/sucerqdl/sw/g09/l202.exe)
                          Input orientation:                          
 ---------------------------------------------------------------------
 Center     Atomic      Atomic             Coordinates (Angstroms)
 Number     Number       Type             X           Y           Z
 ---------------------------------------------------------------------
      1          6           0       -0.003919   -0.013410    0.000001
      2          1           0       -0.103852    1.075627    0.000009
      3          1           0       -0.422900   -0.464398   -0.902040
      4          1           0       -0.422936   -0.464419    0.902015
      5          6           0        1.632434   -0.560457    0.000042
      6          8           0        1.705370   -1.800581    0.000126
      7          7           0        2.868474    0.168959   -0.000010
      8          1           0        2.881283    1.181292   -0.000082
      9          6           0        4.251083   -0.547740    0.000042
     10          1           0        4.267499   -1.198730   -0.884172
     11          1           0        4.267503   -1.198599    0.884352
     12          6           0        5.671510    0.315259   -0.000023
     13          8           0        5.627838    1.549225   -0.000117
     14          7           0        6.899844   -0.414863    0.000033
     15          1           0        6.787976   -1.422514    0.000110
     16          6           0        8.481778   -0.016054    0.000004
     17          1           0        8.906735   -0.442843   -0.910307
     18          1           0        8.533130    1.074732   -0.000074
     19          1           0        8.906734   -0.442712    0.910377
 ---------------------------------------------------------------------
                    Distance matrix (angstroms):
                    1          2          3          4          5
     1  C    0.000000
     2  H    1.093612   0.000000
     3  H    1.092069   1.813053   0.000000
     4  H    1.092068   1.813056   1.804055   0.000000
     5  C    1.725373   2.385678   2.246637   2.246625   0.000000
     6  O    2.472984   3.397919   2.669985   2.669909   1.242266
     7  N    2.878177   3.107535   3.471015   3.471052   1.435216
     8  H    3.122772   2.987005   3.799928   3.800002   2.143203
     9  C    4.288420   4.647664   4.760967   4.760982   2.618679
    10  H    4.520151   5.006315   4.747568   5.072461   2.851806
    11  H    4.520154   5.006287   5.072487   4.747583   2.851809
    12  C    5.684937   5.825201   6.209938   6.209979   4.132918
    13  O    5.844529   5.751224   6.440464   6.440534   4.518187
    14  N    6.915426   7.160540   7.378263   7.378289   5.269422
    15  H    6.936527   7.330621   7.329979   7.329982   5.227117
    16  C    8.485697   8.654757   8.961472   8.961506   6.870945
    17  H    8.967320   9.182871   9.329663   9.504091   7.331986
    18  H    8.606117   8.636982   9.131973   9.132024   7.091787
    19  H    8.967319   9.182852   9.504072   9.329699   7.331985
                    6          7          8          9         10
     6  O    0.000000
     7  N    2.287334   0.000000
     8  H    3.205361   1.012415   0.000000
     9  C    2.837299   1.557325   2.205879   0.000000
    10  H    2.776457   2.146995   2.892701   1.098131   0.000000
    11  H    2.776466   2.146995   2.892699   1.098131   1.768524
    12  C    4.495225   2.806850   2.921536   1.662041   2.246136
    13  O    5.158193   3.085324   2.771090   2.508529   3.191133
    14  N    5.376131   4.073425   4.323950   2.652093   2.885395
    15  H    5.096648   4.230281   4.694897   2.683479   2.680454
    16  C    7.007442   5.616351   5.727056   4.263974   4.465493
    17  H    7.384579   6.137062   6.306536   4.744980   4.700485
    18  H    7.408491   5.736615   5.652851   4.579121   4.913844
    19  H    7.384579   6.137061   6.306534   4.744979   5.031348
                   11         12         13         14         15
    11  H    0.000000
    12  C    2.246135   0.000000
    13  O    3.191133   1.234738   0.000000
    14  N    2.885392   1.428945   2.340008   0.000000
    15  H    2.680449   2.065516   3.190165   1.013842   0.000000
    16  C    4.465490   2.829731   3.255007   1.631429   2.201612
    17  H    5.031346   3.445289   3.943088   2.203885   2.505545
    18  H    4.913839   2.960687   2.943784   2.210546   3.046605
    19  H    4.700479   3.445290   3.943090   2.203884   2.505540
                   16         17         18         19
    16  C    0.000000
    17  H    1.091514   0.000000
    18  H    1.091995   1.808629   0.000000
    19  H    1.091514   1.820683   1.808628   0.000000
 Stoichiometry    C5H10N2O2
 Framework group  C1[X(C5H10N2O2)]
 Deg. of freedom    51
 Full point group                 C1      NOp   1
 RotChk:  IX=0 Diff= 2.07D-05
 Largest Abelian subgroup         C1      NOp   1
 Largest concise Abelian subgroup C1      NOp   1
                         Standard orientation:                         
 ---------------------------------------------------------------------
 Center     Atomic      Atomic             Coordinates (Angstroms)
 Number     Number       Type             X           Y           Z
 ---------------------------------------------------------------------
      1          6           0       -4.121680    0.572699   -0.000010
      2          1           0       -4.108431    1.666230   -0.000002
      3          1           0       -4.585063    0.167467   -0.902052
      4          1           0       -4.585101    0.167450    0.902003
      5          6           0       -2.550690   -0.140674    0.000030
      6          8           0       -2.606420   -1.381690    0.000115
      7          7           0       -1.245831    0.456977   -0.000022
      8          1           0       -1.128378    1.462556   -0.000093
      9          6           0        0.055228   -0.398890    0.000030
     10          1           0        0.004220   -1.048086   -0.884183
     11          1           0        0.004237   -1.047956    0.884340
     12          6           0        1.557302    0.312556   -0.000035
     13          8           0        1.641502    1.544419   -0.000128
     14          7           0        2.703526   -0.540705    0.000021
     15          1           0        2.488029   -1.531381    0.000099
     16          6           0        4.318225   -0.307667   -0.000008
     17          1           0        4.696758   -0.776122   -0.910318
     18          1           0        4.482130    0.771957   -0.000086
     19          1           0        4.696770   -0.775991    0.910365
 ---------------------------------------------------------------------
 Rotational constants (GHZ):      5.0529944      0.5333723      0.4869907
 Leave Link  202 at Wed Sep  3 14:22:28 2025, MaxMem=  8053063680 cpu:         0.1
 (Enter /nexus/posix0/bmm/home/sucerqdl/sw/g09/l301.exe)
 Standard basis: 6-31+G (6D, 7F)
 Ernie: Thresh=  0.10000D-02 Tol=  0.10000D-05 Strict=F.
 There are   137 symmetry adapted cartesian basis functions of A   symmetry.
 There are   137 symmetry adapted basis functions of A   symmetry.
   137 basis functions,   274 primitive gaussians,   137 cartesian basis functions
    35 alpha electrons       35 beta electrons
       nuclear repulsion energy       417.4408124376 Hartrees.
 IExCor= 3226 DFT=T Ex+Corr=BMK ExCW=0 ScaHFX=  0.420000
 ScaDFX=  1.000000  1.000000  1.000000  1.000000 ScalE2=  1.000000  1.000000
 IRadAn=      0 IRanWt=     -1 IRanGd=            0 ICorTp=0 IEmpDi=  4
 NAtoms=   19 NActive=   19 NUniq=   19 SFac= 1.00D+00 NAtFMM=   60 NAOKFM=F Big=F
 Integral buffers will be    131072 words long.
 Raffenetti 2 integral format.
 Two-electron integral symmetry is turned on.
 Leave Link  301 at Wed Sep  3 14:22:28 2025, MaxMem=  8053063680 cpu:         0.6
 (Enter /nexus/posix0/bmm/home/sucerqdl/sw/g09/l302.exe)
 NPDir=0 NMtPBC=     1 NCelOv=     1 NCel=       1 NClECP=     1 NCelD=      1
         NCelK=      1 NCelE2=     1 NClLst=     1 CellRange=     0.0.
 One-electron integrals computed using PRISM.
 NBasis=   137 RedAO= T EigKep=  3.50D-05  NBF=   137
 NBsUse=   137 1.00D-06 EigRej= -1.00D+00 NBFU=   137
 Precomputing XC quadrature grid using
 IXCGrd= 4 IRadAn=           0 IRanWt=          -1 IRanGd=           0 AccXCQ= 0.00D+00.
 Generated NRdTot=       0 NPtTot=           0 NUsed=           0 NTot=          32
 NSgBfM=   136   136   136   136   137 MxSgAt=    19 MxSgA2=    19.
 Leave Link  302 at Wed Sep  3 14:22:28 2025, MaxMem=  8053063680 cpu:         1.9
 (Enter /nexus/posix0/bmm/home/sucerqdl/sw/g09/l303.exe)
 DipDrv:  MaxL=1.
 Leave Link  303 at Wed Sep  3 14:22:28 2025, MaxMem=  8053063680 cpu:         0.4
 (Enter /nexus/posix0/bmm/home/sucerqdl/sw/g09/l401.exe)
 Initial guess from the checkpoint file:  "G-stretched06.chk"
 B after Tr=     0.000000    0.000000    0.000000
         Rot=    1.000000   -0.000001    0.000000   -0.000004 Ang=   0.00 deg.
 Guess basis will be translated and rotated to current coordinates.
 JPrj=2 DoOrth=T DoCkMO=T.
 Generating alternative initial guess.
 ExpMin= 4.38D-02 ExpMax= 5.48D+03 ExpMxC= 8.25D+02 IAcc=2 IRadAn=         4 AccDes= 0.00D+00
 Harris functional with IExCor= 1009 and IRadAn=       4 diagonalized for initial guess.
 HarFok:  IExCor= 1009 AccDes= 0.00D+00 IRadAn=         4 IDoV= 1 UseB2=F ITyADJ=14
 ICtDFT=  3500011 ScaDFX=  1.000000  1.000000  1.000000  1.000000
 FoFCou: FMM=F IPFlag=           0 FMFlag=      100000 FMFlg1=           0
         NFxFlg=           0 DoJE=T BraDBF=F KetDBF=T FulRan=T
         wScrn=  0.000000 ICntrl=     500 IOpCl=  0 I1Cent=   200000004 NGrid=           0
         NMat0=    1 NMatS0=      1 NMatT0=    0 NMatD0=    1 NMtDS0=    0 NMtDT0=    0
 Petite list used in FoFCou.
 Harris En= -455.932076190348    
 Leave Link  401 at Wed Sep  3 14:22:28 2025, MaxMem=  8053063680 cpu:         3.8
 (Enter /nexus/posix0/bmm/home/sucerqdl/sw/g09/l502.exe)
 Closed shell SCF:
 Using DIIS extrapolation, IDIIS=  1040.
 Integral symmetry usage will be decided dynamically.
 Keep R1 ints in memory in canonical form, NReq=46076400.
 IVT=       78102 IEndB=       78102 NGot=  8053063680 MDV=  8008301248
 LenX=  8008301248 LenY=  8008282038
 Requested convergence on RMS density matrix=1.00D-08 within 128 cycles.
 Requested convergence on MAX density matrix=1.00D-06.
 Requested convergence on             energy=1.00D-06.
 No special actions if energy rises.
 FoFCou: FMM=F IPFlag=           0 FMFlag=           0 FMFlg1=           0
         NFxFlg=           0 DoJE=F BraDBF=F KetDBF=F FulRan=T
         wScrn=  0.000000 ICntrl=     600 IOpCl=  0 I1Cent=           0 NGrid=           0
         NMat0=    1 NMatS0=   9453 NMatT0=    0 NMatD0=    1 NMtDS0=    0 NMtDT0=    0
 Symmetry not used in FoFCou.

 Cycle   1  Pass 1  IDiag  1:
 E= -456.077944282576    
 DIIS: error= 1.62D-03 at cycle   1 NSaved=   1.
 NSaved= 1 IEnMin= 1 EnMin= -456.077944282576     IErMin= 1 ErrMin= 1.62D-03
 ErrMax= 1.62D-03  0.00D+00 EMaxC= 1.00D-01 BMatC= 5.69D-04 BMatP= 5.69D-04
 IDIUse=3 WtCom= 9.84D-01 WtEn= 1.62D-02
 Coeff-Com:  0.100D+01
 Coeff-En:   0.100D+01
 Coeff:      0.100D+01
 Gap=     0.504 Goal=   None    Shift=    0.000
 GapD=    0.504 DampG=2.000 DampE=1.000 DampFc=2.0000 IDamp=-1.
 RMSDP=7.63D-04 MaxDP=2.89D-02              OVMax= 8.81D-03

 Cycle   2  Pass 1  IDiag  1:
 E= -456.078881361116     Delta-E=       -0.000937078540 Rises=F Damp=F
 DIIS: error= 9.78D-04 at cycle   2 NSaved=   2.
 NSaved= 2 IEnMin= 2 EnMin= -456.078881361116     IErMin= 2 ErrMin= 9.78D-04
 ErrMax= 9.78D-04  0.00D+00 EMaxC= 1.00D-01 BMatC= 6.81D-05 BMatP= 5.69D-04
 IDIUse=3 WtCom= 9.90D-01 WtEn= 9.78D-03
 Coeff-Com:  0.857D-01 0.914D+00
 Coeff-En:   0.000D+00 0.100D+01
 Coeff:      0.848D-01 0.915D+00
 Gap=     0.329 Goal=   None    Shift=    0.000
 RMSDP=2.26D-04 MaxDP=6.21D-03 DE=-9.37D-04 OVMax= 6.01D-03

 Cycle   3  Pass 1  IDiag  1:
 E= -456.078846872532     Delta-E=        0.000034488584 Rises=F Damp=F
 DIIS: error= 1.39D-03 at cycle   3 NSaved=   3.
 NSaved= 3 IEnMin= 2 EnMin= -456.078881361116     IErMin= 2 ErrMin= 9.78D-04
 ErrMax= 1.39D-03  0.00D+00 EMaxC= 1.00D-01 BMatC= 1.39D-04 BMatP= 6.81D-05
 IDIUse=3 WtCom= 2.11D-01 WtEn= 7.89D-01
 Coeff-Com: -0.655D-01 0.624D+00 0.441D+00
 Coeff-En:   0.000D+00 0.591D+00 0.409D+00
 Coeff:     -0.138D-01 0.598D+00 0.416D+00
 Gap=     0.326 Goal=   None    Shift=    0.000
 RMSDP=1.41D-04 MaxDP=5.49D-03 DE= 3.45D-05 OVMax= 3.54D-03

 Cycle   4  Pass 1  IDiag  1:
 E= -456.078957976314     Delta-E=       -0.000111103782 Rises=F Damp=F
 DIIS: error= 1.53D-04 at cycle   4 NSaved=   4.
 NSaved= 4 IEnMin= 4 EnMin= -456.078957976314     IErMin= 4 ErrMin= 1.53D-04
 ErrMax= 1.53D-04  0.00D+00 EMaxC= 1.00D-01 BMatC= 2.30D-06 BMatP= 6.81D-05
 IDIUse=3 WtCom= 9.98D-01 WtEn= 1.53D-03
 Coeff-Com: -0.332D-01 0.195D+00 0.186D+00 0.652D+00
 Coeff-En:   0.000D+00 0.000D+00 0.000D+00 0.100D+01
 Coeff:     -0.331D-01 0.195D+00 0.185D+00 0.653D+00
 Gap=     0.326 Goal=   None    Shift=    0.000
 RMSDP=2.37D-05 MaxDP=4.48D-04 DE=-1.11D-04 OVMax= 4.43D-04

 Cycle   5  Pass 1  IDiag  1:
 E= -456.078959984786     Delta-E=       -0.000002008472 Rises=F Damp=F
 DIIS: error= 3.84D-05 at cycle   5 NSaved=   5.
 NSaved= 5 IEnMin= 5 EnMin= -456.078959984786     IErMin= 5 ErrMin= 3.84D-05
 ErrMax= 3.84D-05  0.00D+00 EMaxC= 1.00D-01 BMatC= 3.06D-07 BMatP= 2.30D-06
 IDIUse=1 WtCom= 1.00D+00 WtEn= 0.00D+00
 Coeff-Com: -0.341D-02-0.188D-01 0.638D-02 0.287D+00 0.729D+00
 Coeff:     -0.341D-02-0.188D-01 0.638D-02 0.287D+00 0.729D+00
 Gap=     0.326 Goal=   None    Shift=    0.000
 RMSDP=8.60D-06 MaxDP=2.24D-04 DE=-2.01D-06 OVMax= 1.20D-04

 Cycle   6  Pass 1  IDiag  1:
 E= -456.078960249699     Delta-E=       -0.000000264913 Rises=F Damp=F
 DIIS: error= 1.24D-05 at cycle   6 NSaved=   6.
 NSaved= 6 IEnMin= 6 EnMin= -456.078960249699     IErMin= 6 ErrMin= 1.24D-05
 ErrMax= 1.24D-05  0.00D+00 EMaxC= 1.00D-01 BMatC= 3.36D-08 BMatP= 3.06D-07
 IDIUse=1 WtCom= 1.00D+00 WtEn= 0.00D+00
 Coeff-Com:  0.112D-02-0.250D-01-0.140D-01 0.802D-01 0.343D+00 0.614D+00
 Coeff:      0.112D-02-0.250D-01-0.140D-01 0.802D-01 0.343D+00 0.614D+00
 Gap=     0.326 Goal=   None    Shift=    0.000
 RMSDP=2.69D-06 MaxDP=9.53D-05 DE=-2.65D-07 OVMax= 4.04D-05

 Cycle   7  Pass 1  IDiag  1:
 E= -456.078960281927     Delta-E=       -0.000000032229 Rises=F Damp=F
 DIIS: error= 3.41D-06 at cycle   7 NSaved=   7.
 NSaved= 7 IEnMin= 7 EnMin= -456.078960281927     IErMin= 7 ErrMin= 3.41D-06
 ErrMax= 3.41D-06  0.00D+00 EMaxC= 1.00D-01 BMatC= 1.79D-09 BMatP= 3.36D-08
 IDIUse=1 WtCom= 1.00D+00 WtEn= 0.00D+00
 Coeff-Com:  0.650D-03-0.720D-02-0.636D-02 0.764D-02 0.649D-01 0.214D+00
 Coeff-Com:  0.726D+00
 Coeff:      0.650D-03-0.720D-02-0.636D-02 0.764D-02 0.649D-01 0.214D+00
 Coeff:      0.726D+00
 Gap=     0.326 Goal=   None    Shift=    0.000
 RMSDP=1.04D-06 MaxDP=1.83D-05 DE=-3.22D-08 OVMax= 1.85D-05

 Cycle   8  Pass 1  IDiag  1:
 E= -456.078960283412     Delta-E=       -0.000000001484 Rises=F Damp=F
 DIIS: error= 2.34D-06 at cycle   8 NSaved=   8.
 NSaved= 8 IEnMin= 8 EnMin= -456.078960283412     IErMin= 8 ErrMin= 2.34D-06
 ErrMax= 2.34D-06  0.00D+00 EMaxC= 1.00D-01 BMatC= 6.92D-10 BMatP= 1.79D-09
 IDIUse=1 WtCom= 1.00D+00 WtEn= 0.00D+00
 Coeff-Com:  0.283D-03-0.187D-02-0.269D-02-0.306D-02 0.365D-02 0.598D-01
 Coeff-Com:  0.441D+00 0.503D+00
 Coeff:      0.283D-03-0.187D-02-0.269D-02-0.306D-02 0.365D-02 0.598D-01
 Coeff:      0.441D+00 0.503D+00
[...]
 ! D31   D(15,14,16,18)       -179.9978         -DE/DX =    0.0                 !
 ! D32   D(15,14,16,19)        -60.4004         -DE/DX =    0.0                 !
 --------------------------------------------------------------------------------
 Lowest energy point so far.  Saving SCF results.
 GradGradGradGradGradGradGradGradGradGradGradGradGradGradGradGradGradGrad

 Largest change from initial coordinates is atom   19       0.060 Angstoms.
 Leave Link  103 at Wed Sep  3 14:22:39 2025, MaxMem=  8053063680 cpu:         0.5
 (Enter /nexus/posix0/bmm/home/sucerqdl/sw/g09/l202.exe)
                          Input orientation:                          
 ---------------------------------------------------------------------
 Center     Atomic      Atomic             Coordinates (Angstroms)
 Number     Number       Type             X           Y           Z
 ---------------------------------------------------------------------
      1          6           0       -0.004499   -0.011249    0.000002
      2          1           0       -0.102896    1.077912   -0.000080
      3          1           0       -0.423466   -0.461943   -0.902206
      4          1           0       -0.423452   -0.461803    0.902286
      5          6           0        1.632341   -0.561069    0.000028
      6          8           0        1.703412   -1.801179    0.000088
      7          7           0        2.869356    0.167186   -0.000004
      8          1           0        2.883042    1.179524   -0.000060
      9          6           0        4.251346   -0.550398    0.000039
     10          1           0        4.267759   -1.201197   -0.884303
     11          1           0        4.267764   -1.201085    0.884463
     12          6           0        5.671177    0.313009   -0.000019
     13          8           0        5.626832    1.546959   -0.000105
     14          7           0        6.900348   -0.416306    0.000035
     15          1           0        6.789920   -1.424101    0.000107
     16          6           0        8.481197   -0.014276    0.000007
     17          1           0        8.907670   -0.439465   -0.910430
     18          1           0        8.530052    1.076658   -0.000031
     19          1           0        8.907680   -0.439402    0.910469
 ---------------------------------------------------------------------
                    Distance matrix (angstroms):
                    1          2          3          4          5
     1  C    0.000000
     2  H    1.093596   0.000000
     3  H    1.092079   1.813215   0.000000
     4  H    1.092080   1.813214   1.804492   0.000000
     5  C    1.726716   2.386902   2.247263   2.247266   0.000000
     6  O    2.474028   3.398811   2.670449   2.670475   1.242145
     7  N    2.879389   3.108650   3.471663   3.471648   1.435466
     8  H    3.123433   2.987667   3.800168   3.800143   2.143342
     9  C    4.289860   4.648744   4.761905   4.761894   2.619027
    10  H    4.522186   5.007875   4.749148   5.074058   2.852584
    11  H    4.522192   5.007885   5.074067   4.749143   2.852596
    12  C    5.684931   5.824517   6.209603   6.209588   4.132337
    13  O    5.842936   5.748894   6.438600   6.438584   4.516607
    14  N    6.916718   7.160874   7.379321   7.379307   5.269996
    15  H    6.939761   7.332870   7.332997   7.332985   5.229288
    16  C    8.485697   8.653296   8.961441   8.961426   6.870649
    17  H    8.968780   9.182672   9.331167   9.505592   7.333085
    18  H    8.603610   8.632948   9.129441   9.129418   7.089469
    19  H    8.968790   9.182691   9.505608   9.331162   7.333094
                    6          7          8          9         10
     6  O    0.000000
     7  N    2.287768   0.000000
     8  H    3.205638   1.012430   0.000000
     9  C    2.838384   1.557184   2.205648   0.000000
    10  H    2.778129   2.147088   2.892604   1.098121   0.000000
    11  H    2.778152   2.147089   2.892600   1.098121   1.768766
    12  C    4.495881   2.805613   2.919682   1.661743   2.245965
    13  O    5.157834   3.083415   2.768283   2.508160   3.190807
    14  N    5.378291   4.073004   4.322663   2.652393   2.885937
    15  H    5.100466   4.231196   4.694950   2.684719   2.682007
    16  C    7.009379   5.614775   5.724028   4.263692   4.465854
    17  H    7.388142   6.136623   6.304446   4.745799   4.702095
    18  H    7.408438   5.733290   5.647946   4.577623   4.913014
    19  H    7.388146   6.136633   6.304462   4.745803   5.032932
                   11         12         13         14         15
    11  H    0.000000
    12  C    2.245964   0.000000
    13  O    3.190810   1.234747   0.000000
    14  N    2.885929   1.429252   2.340139   0.000000
    15  H    2.681994   2.066188   3.190606   1.013826   0.000000
    16  C    4.465848   2.829016   3.253438   1.631169   2.201823
    17  H    5.032935   3.445280   3.941886   2.204274   2.506681
    18  H    4.912997   2.959109   2.941066   2.210176   3.046613
    19  H    4.702090   3.445295   3.941920   2.204269   2.506650
                   16         17         18         19
    16  C    0.000000
    17  H    1.091586   0.000000
    18  H    1.092028   1.808328   0.000000
    19  H    1.091586   1.820899   1.808328   0.000000
 Stoichiometry    C5H10N2O2
 Framework group  C1[X(C5H10N2O2)]
 Deg. of freedom    51
 Full point group                 C1      NOp   1
 RotChk:  IX=0 Diff= 4.32D-16
 Largest Abelian subgroup         C1      NOp   1
 Largest concise Abelian subgroup C1      NOp   1
                         Standard orientation:                         
 ---------------------------------------------------------------------
 Center     Atomic      Atomic             Coordinates (Angstroms)
 Number     Number       Type             X           Y           Z
 ---------------------------------------------------------------------
      1          6           0       -4.121744    0.575189   -0.000007
      2          1           0       -4.107050    1.668686   -0.000089
      3          1           0       -4.585046    0.170208   -0.902215
      4          1           0       -4.585018    0.170346    0.902277
      5          6           0       -2.550493   -0.140853    0.000019
      6          8           0       -2.607967   -1.381668    0.000079
      7          7           0       -1.244837    0.455656   -0.000013
      8          1           0       -1.126599    1.461159   -0.000069
      9          6           0        0.055591   -0.400912    0.000029
     10          1           0        0.004656   -1.049923   -0.884312
     11          1           0        0.004672   -1.049813    0.884454
     12          6           0        1.557051    0.311131   -0.000028
     13          8           0        1.640472    1.543057   -0.000114
     14          7           0        2.704266   -0.541313    0.000026
     15          1           0        2.490274   -1.532297    0.000098
     16          6           0        4.318199   -0.304815   -0.000002
     17          1           0        4.698445   -0.771803   -0.910439
     18          1           0        4.479540    0.775228   -0.000040
     19          1           0        4.698461   -0.771741    0.910460
 ---------------------------------------------------------------------
 Rotational constants (GHZ):      5.0551326      0.5333254      0.4869730
 Leave Link  202 at Wed Sep  3 14:22:39 2025, MaxMem=  8053063680 cpu:         0.1
 (Enter /nexus/posix0/bmm/home/sucerqdl/sw/g09/l601.exe)
 Copying SCF densities to generalized density rwf, IOpCl= 0 IROHF=0.

 **********************************************************************

            Population analysis using the SCF density.

 **********************************************************************

 Orbital symmetries:
       Occupied  (A) (A) (A) (A) (A) (A) (A) (A) (A) (A) (A) (A)
                 (A) (A) (A) (A) (A) (A) (A) (A) (A) (A) (A) (A)
                 (A) (A) (A) (A) (A) (A) (A) (A) (A) (A) (A)
       Virtual   (A) (A) (A) (A) (A) (A) (A) (A) (A) (A) (A) (A)
                 (A) (A) (A) (A) (A) (A) (A) (A) (A) (A) (A) (A)
                 (A) (A) (A) (A) (A) (A) (A) (A) (A) (A) (A) (A)
                 (A) (A) (A) (A) (A) (A) (A) (A) (A) (A) (A) (A)
                 (A) (A) (A) (A) (A) (A) (A) (A) (A) (A) (A) (A)
                 (A) (A) (A) (A) (A) (A) (A) (A) (A) (A) (A) (A)
                 (A) (A) (A) (A) (A) (A) (A) (A) (A) (A) (A) (A)
                 (A) (A) (A) (A) (A) (A) (A) (A) (A) (A) (A) (A)
                 (A) (A) (A) (A) (A) (A)
 The electronic state is 1-A.
 Alpha  occ. eigenvalues --  -19.54023 -19.52400 -14.72551 -14.71878 -10.63190
 Alpha  occ. eigenvalues --  -10.61761 -10.54877 -10.54091 -10.50006  -1.15091
 Alpha  occ. eigenvalues --   -1.13778  -0.98524  -0.97653  -0.81157  -0.78948
 Alpha  occ. eigenvalues --   -0.76468  -0.64059  -0.63406  -0.57594  -0.52487
 Alpha  occ. eigenvalues --   -0.52027  -0.51343  -0.50459  -0.49145  -0.48416
 Alpha  occ. eigenvalues --   -0.47802  -0.45795  -0.44403  -0.44099  -0.43028
 Alpha  occ. eigenvalues --   -0.41038  -0.31398  -0.30820  -0.29563  -0.29487
 Alpha virt. eigenvalues --    0.03117   0.03347   0.03415   0.03952   0.04597
 Alpha virt. eigenvalues --    0.06675   0.07084   0.07886   0.08270   0.08953
 Alpha virt. eigenvalues --    0.09079   0.10173   0.11061   0.11592   0.12101
 Alpha virt. eigenvalues --    0.12947   0.13547   0.14237   0.15523   0.16039
 Alpha virt. eigenvalues --    0.16529   0.17540   0.18598   0.20124   0.20717
 Alpha virt. eigenvalues --    0.21101   0.22685   0.22821   0.23178   0.23798
 Alpha virt. eigenvalues --    0.24250   0.25031   0.26842   0.27232   0.27956
 Alpha virt. eigenvalues --    0.27983   0.29001   0.29753   0.31156   0.31492
 Alpha virt. eigenvalues --    0.31780   0.33352   0.34757   0.36147   0.36354
 Alpha virt. eigenvalues --    0.36840   0.37351   0.39121   0.40461   0.40750
 Alpha virt. eigenvalues --    0.43295   0.45308   0.46271   0.47609   0.52690
 Alpha virt. eigenvalues --    0.56086   0.66183   0.69076   0.69188   0.70569
 Alpha virt. eigenvalues --    0.71036   0.74226   0.77171   0.78932   0.80201
 Alpha virt. eigenvalues --    0.82911   0.84666   0.85940   0.91545   0.93772
 Alpha virt. eigenvalues --    0.98823   1.00069   1.01489   1.02613   1.10451
 Alpha virt. eigenvalues --    1.11923   1.12645   1.12820   1.13117   1.16006
 Alpha virt. eigenvalues --    1.16622   1.19204   1.22033   1.23353   1.25107
 Alpha virt. eigenvalues --    1.28819   1.33786   1.34057   1.36488   1.36526
 Alpha virt. eigenvalues --    1.42060   1.43703   1.46487   1.49650   1.50949
 Alpha virt. eigenvalues --    1.54748   1.56279   1.60458   1.67532   1.84025
 Alpha virt. eigenvalues --    2.02717   2.11649
          Condensed to atoms (all electrons):
               1          2          3          4          5          6
     1  C    6.318683   0.338648   0.407030   0.407027  -0.269956  -0.142074
     2  H    0.338648   0.528016  -0.025919  -0.025920  -0.023705   0.006786
     3  H    0.407030  -0.025919   0.466841  -0.021886  -0.050044  -0.003922
     4  H    0.407027  -0.025920  -0.021886   0.466843  -0.050042  -0.003922
     5  C   -0.269956  -0.023705  -0.050044  -0.050042   5.695137   0.441295
     6  O   -0.142074   0.006786  -0.003922  -0.003922   0.441295   8.484143
     7  N   -0.244694   0.006343   0.000558   0.000558  -0.084601  -0.223076
     8  H    0.010930  -0.000174   0.000010   0.000010   0.022865   0.006228
     9  C   -0.171189   0.001227  -0.003719  -0.003719  -0.727810  -0.043725
    10  H   -0.001837   0.000000   0.000010  -0.000003   0.000370   0.000979
    11  H   -0.001837   0.000000  -0.000003   0.000010   0.000369   0.000979
    12  C    0.066465  -0.000135  -0.000319  -0.000319   0.391970   0.012188
    13  O   -0.001787   0.000000   0.000001   0.000001   0.005302  -0.000189
    14  N   -0.000570   0.000006  -0.000001  -0.000001   0.008117  -0.002075
    15  H    0.000077   0.000000   0.000000   0.000000   0.001890   0.000089
    16  C    0.000236   0.000001   0.000000   0.000000   0.003892  -0.000154
    17  H    0.000001   0.000000   0.000000   0.000000   0.000027   0.000000
    18  H   -0.000001   0.000000   0.000000   0.000000  -0.000046   0.000000
    19  H    0.000001   0.000000   0.000000   0.000000   0.000027   0.000000
               7          8          9         10         11         12
     1  C   -0.244694   0.010930  -0.171189  -0.001837  -0.001837   0.066465
     2  H    0.006343  -0.000174   0.001227   0.000000   0.000000  -0.000135
     3  H    0.000558   0.000010  -0.003719   0.000010  -0.000003  -0.000319
     4  H    0.000558   0.000010  -0.003719  -0.000003   0.000010  -0.000319
     5  C   -0.084601   0.022865  -0.727810   0.000370   0.000369   0.391970
     6  O   -0.223076   0.006228  -0.043725   0.000979   0.000979   0.012188
     7  N    7.700232   0.259037   0.272834  -0.049284  -0.049285  -0.054318
     8  H    0.259037   0.316390  -0.052781   0.001776   0.001776   0.018559
     9  C    0.272834  -0.052781  10.703297   0.335444   0.335447  -3.321462
    10  H   -0.049284   0.001776   0.335444   0.496373  -0.036981  -0.002056
    11  H   -0.049285   0.001776   0.335447  -0.036981   0.496375  -0.002059
    12  C   -0.054318   0.018559  -3.321462  -0.002056  -0.002059   7.517595
    13  O    0.020737   0.003848   0.048816   0.000913   0.000913   0.237340
    14  N    0.013940   0.002031  -0.731034   0.015258   0.015259   0.512965
    15  H    0.000052  -0.000004   0.054668  -0.000514  -0.000514  -0.045803
    16  C    0.002655   0.000468  -0.174552   0.002407   0.002407   0.006693
    17  H   -0.000017   0.000000   0.004738   0.000008  -0.000002  -0.002723
    18  H   -0.000020   0.000000  -0.009352  -0.000002  -0.000002  -0.008262
    19  H   -0.000017   0.000000   0.004738  -0.000002   0.000008  -0.002722
              13         14         15         16         17         18
     1  C   -0.001787  -0.000570   0.000077   0.000236   0.000001  -0.000001
     2  H    0.000000   0.000006   0.000000   0.000001   0.000000   0.000000
     3  H    0.000001  -0.000001   0.000000   0.000000   0.000000   0.000000
     4  H    0.000001  -0.000001   0.000000   0.000000   0.000000   0.000000
     5  C    0.005302   0.008117   0.001890   0.003892   0.000027  -0.000046
     6  O   -0.000189  -0.002075   0.000089  -0.000154   0.000000   0.000000
     7  N    0.020737   0.013940   0.000052   0.002655  -0.000017  -0.000020
     8  H    0.003848   0.002031  -0.000004   0.000468   0.000000   0.000000
     9  C    0.048816  -0.731034   0.054668  -0.174552   0.004738  -0.009352
    10  H    0.000913   0.015258  -0.000514   0.002407   0.000008  -0.000002
    11  H    0.000913   0.015259  -0.000514   0.002407  -0.000002  -0.000002
    12  C    0.237340   0.512965  -0.045803   0.006693  -0.002723  -0.008262
    13  O    8.472713  -0.215818   0.009213  -0.026204   0.000026   0.005126
    14  N   -0.215818   7.617766   0.262956   0.185379  -0.040874  -0.038680
    15  H    0.009213   0.262956   0.390102  -0.027672  -0.000936   0.002297
    16  C   -0.026204   0.185379  -0.027672   5.253049   0.383973   0.406997
    17  H    0.000026  -0.040874  -0.000936   0.383973   0.501382  -0.022793
    18  H    0.005126  -0.038680   0.002297   0.406997  -0.022793   0.446082
    19  H    0.000026  -0.040873  -0.000936   0.383972  -0.033698  -0.022793
              19
     1  C    0.000001
     2  H    0.000000
     3  H    0.000000
     4  H    0.000000
     5  C    0.000027
     6  O    0.000000
     7  N   -0.000017
     8  H    0.000000
     9  C    0.004738
    10  H   -0.000002
    11  H    0.000008
    12  C   -0.002722
    13  O    0.000026
    14  N   -0.040873
    15  H   -0.000936
    16  C    0.383972
    17  H   -0.033698
    18  H   -0.022793
    19  H    0.501382
 Mulliken charges:
               1
     1  C   -0.715149
     2  H    0.194827
     3  H    0.231362
     4  H    0.231361
     5  C    0.634945
     6  O   -0.533551
     7  N   -0.571634
     8  H    0.409031
     9  C   -0.521865
    10  H    0.237143
    11  H    0.237141
    12  C    0.676402
    13  O   -0.560977
    14  N   -0.563749
    15  H    0.355034
    16  C   -0.403547
    17  H    0.210889
    18  H    0.241448
    19  H    0.210888
 Sum of Mulliken charges =   0.00000
 Mulliken charges with hydrogens summed into heavy atoms:
               1
     1  C   -0.057599
     5  C    0.634945
     6  O   -0.533551
     7  N   -0.162603
     9  C   -0.047581
    12  C    0.676402
    13  O   -0.560977
    14  N   -0.208715
    16  C    0.259679
 Electronic spatial extent (au):  <R**2>=           2237.0998
 Charge=              0.0000 electrons
 Dipole moment (field-independent basis, Debye):
    X=              2.6291    Y=             -0.5921    Z=              0.0001  Tot=              2.6950
 Quadrupole moment (field-independent basis, Debye-Ang):
   XX=            -37.7414   YY=            -61.7562   ZZ=            -55.4463
   XY=            -18.5618   XZ=              0.0010   YZ=              0.0005
 Traceless Quadrupole moment (field-independent basis, Debye-Ang):
   XX=             13.9066   YY=            -10.1082   ZZ=             -3.7983
   XY=            -18.5618   XZ=              0.0010   YZ=              0.0005
 Octapole moment (field-independent basis, Debye-Ang**2):
  XXX=             56.0495  YYY=             -1.3654  ZZZ=              0.0003  XYY=             10.1406
  XXY=              9.4677  XXZ=             -0.0004  XZZ=             -0.9497  YZZ=             -2.2669
  YYZ=              0.0001  XYZ=             -0.0006
 Hexadecapole moment (field-independent basis, Debye-Ang**3):
 XXXX=          -2083.2090 YYYY=           -304.5913 ZZZZ=            -75.0476 XXXY=           -108.3434
 XXXZ=              0.0102 YYYX=            -55.4179 YYYZ=              0.0073 ZZZX=              0.0048
 ZZZY=              0.0065 XXYY=           -512.6884 XXZZ=           -430.3760 YYZZ=            -61.5411
 XXYZ=              0.0051 YYXZ=              0.0064 ZZXY=              3.2884
 N-N= 4.174282242436D+02 E-N=-1.899255070160D+03  KE= 4.523805024576D+02
 No NMR shielding tensors so no spin-rotation constants.
 Leave Link  601 at Wed Sep  3 14:22:39 2025, MaxMem=  8053063680 cpu:         1.3
 (Enter /nexus/posix0/bmm/home/sucerqdl/sw/g09/l9999.exe)
 1\1\GINC-SLURM-ORBIT-CPU1\FOpt\RBMK\6-31+G\C5H10N2O2\SUCERQDL\03-Sep-2
 025\0\\#P bmk/6-31+g opt(modredun,calcfc)\\Gaussian input prepared by 
 ASE\\0,1\C,-0.0044993371,-0.0112486048,0.0000018192\H,-0.1028959851,1.
 0779116891,-0.0000802322\H,-0.4234658702,-0.4619430744,-0.9022058581\H
 ,-0.4234516508,-0.4618034774,0.9022861831\C,1.6323405537,-0.5610686325
 ,0.0000284847\O,1.7034123823,-1.8011789443,0.000088473\N,2.8693558901,
 0.1671858264,-0.0000040305\H,2.8830424818,1.1795235911,-0.0000599326\C
 ,4.2513462206,-0.5503975475,0.0000385512\H,4.2677589154,-1.2011971898,
 -0.8843032047\H,4.2677640295,-1.2010852503,0.8844626593\C,5.6711770596
 ,0.3130086332,-0.0000188627\O,5.6268319883,1.5469586527,-0.0001051515\
 N,6.9003480284,-0.4163063917,0.0000349765\H,6.7899200886,-1.4241005246
 ,0.0001069255\C,8.4811973234,-0.0142764289,0.0000071592\H,8.9076699676
 ,-0.4394650858,-0.9104300682\H,8.5300518177,1.0766582313,-0.0000309999
 \H,8.9076796242,-0.4394017884,0.9104691945\\Version=ES64L-G09RevD.01\S
 tate=1-A\HF=-456.0789617\RMSD=6.601e-09\RMSF=1.289e-02\Dipole=1.052910
 3,-0.1247983,0.0000424\Quadrupole=12.9857127,-10.1617575,-2.8239552,-1
 1.6700906,0.0006969,0.0004095\PG=C01 [X(C5H10N2O2)]\\@


 IT IS IMPOSSIBLE TO MEDITATE ON TIME AND THE MYSTERY 
 OF NATURE WITHOUT AN OVERWHELMING EMOTION AT THE
 LIMITATIONS OF HUMAN INTELLIGENCE.

                                         -- ALFRED NORTH WHITEHEAD
 Job cpu time:       0 days  0 hours 10 minutes 26.5 seconds.
 File lengths (MBytes):  RWF=    132 Int=      0 D2E=      0 Chk=      3 Scr=      2
 Normal termination of Gaussian 09 at Wed Sep  3 14:22:40 2025.
