 Entering Gaussian System, Link 0=g09
 Input=G-stretched00.com
 Output=G-stretched00.log
 Initial command:
 /nexus/posix0/bmm/home/sucerqdl/sw/g09/l1.exe "/nexus/posix0/bmm/home/sucerqdl/sw/g09/g09_scratch/Gau-2865725.inp" -scrdir="/nexus/posix0/bmm/home/sucerqdl/sw/g09/g09_scratch/"
 Entering Link 1 = /nexus/posix0/bmm/home/sucerqdl/sw/g09/l1.exe PID=   2865727.
  
 Copyright (c) 1988,1990,1992,1993,1995,1998,2003,2009,2013,
            Gaussian, Inc.  All Rights Reserved.
  
 This is part of the Gaussian(R) 09 program.  It is based on
 the Gaussian(R) 03 system (copyright 2003, Gaussian, Inc.),
 the Gaussian(R) 98 system (copyright 1998, Gaussian, Inc.),
 the Gaussian(R) 94 system (copyright 1995, Gaussian, Inc.),
 the Gaussian 92(TM) system (copyright 1992, Gaussian, Inc.),
 the Gaussian 90(TM) system (copyright 1990, Gaussian, Inc.),
 the Gaussian 88(TM) system (copyright 1988, Gaussian, Inc.),
 the Gaussian 86(TM) system (copyright 1986, Carnegie Mellon
 University), and the Gaussian 82(TM) system (copyright 1983,
 Carnegie Mellon University). Gaussian is a federally registered
 trademark of Gaussian, Inc.
  
 This software contains proprietary and confidential information,
 including trade secrets, belonging to Gaussian, Inc.
  
 This software is provided under written license and may be
 used, copied, transmitted, or stored only in accord with that
 written license.
  
 The following legend is applicable only to US Government
 contracts under FAR:
  
                    RESTRICTED RIGHTS LEGEND
  
 Use, reproduction and disclosure by the US Government is
 subject to restrictions as set forth in subparagraphs (a)
 and (c) of the Commercial Computer Software - Restricted
 Rights clause in FAR 52.227-19.
  
 Gaussian, Inc.
 340 Quinnipiac St., Bldg. 40, Wallingford CT 06492
  
  
 ---------------------------------------------------------------
 Warning -- This program may not be used in any manner that
 competes with the business of Gaussian, Inc. or will provide
 assistance to any competitor of Gaussian, Inc.  The licensee
 of this program is prohibited from giving any competitor of
 Gaussian, Inc. access to this program.  By using this program,
 the user acknowledges that Gaussian, Inc. is engaged in the
 business of creating and licensing software in the field of
 computational chemistry and represents and warrants to the
 licensee that it is not a competitor of Gaussian, Inc. and that
 it will not use this program in any manner prohibited above.
 ---------------------------------------------------------------
  

 Cite this work as:
 Gaussian 09, Revision D.01,
 M. J. Frisch, G. W. Trucks, H. B. Schlegel, G. E. Scuseria, 
 M. A. Robb, J. R. Cheeseman, G. Scalmani, V. Barone, B. Mennucci, 
 G. A. Petersson, H. Nakatsuji, M. Caricato, X. Li, H. P. Hratchian, 
 A. F. Izmaylov, J. Bloino, G. Zheng, J. L. Sonnenberg, M. Hada, 
 M. Ehara, K. Toyota, R. Fukuda, J. Hasegawa, M. Ishida, T. Nakajima, 
 Y. Honda, O. Kitao, H. Nakai, T. Vreven, J. A. Montgomery, Jr., 
 J. E. Peralta, F. Ogliaro, M. Bearpark, J. J. Heyd, E. Brothers, 
 K. N. Kudin, V. N. Staroverov, T. Keith, R. Kobayashi, J. Normand, 
 K. Raghavachari, A. Rendell, J. C. Burant, S. S. Iyengar, J. Tomasi, 
 M. Cossi, N. Rega, J. M. Millam, M. Klene, J. E. Knox, J. B. Cross, 
 V. Bakken, C. Adamo, J. Jaramillo, R. Gomperts, R. E. Stratmann, 
 O. Yazyev, A. J. Austin, R. Cammi, C. Pomelli, J. W. Ochterski, 
 R. L. Martin, K. Morokuma, V. G. Zakrzewski, G. A. Voth, 
 P. Salvador, J. J. Dannenberg, S. Dapprich, A. D. Daniels, 
 O. Farkas, J. B. Foresman, J. V. Ortiz, J. Cioslowski, 
 and D. J. Fox, Gaussian, Inc., Wallingford CT, 2013.
 
 ******************************************
 Gaussian 09:  ES64L-G09RevD.01 24-Apr-2013
                 3-Sep-2025 
 ******************************************
 %mem=60GB
 %NProcShared=16
 Will use up to   16 processors via shared memory.
 %chk=G-stretched00
 ----------------------------------
 #P bmk/6-31+g opt(modredun,calcfc)
 ----------------------------------
 1/10=4,14=-1,18=120,19=15,26=3,38=1/1,3;
 2/9=110,12=2,17=6,18=5,40=1/2;
 3/5=1,6=6,7=10,11=2,16=1,25=1,30=1,71=2,74=-34,140=1/1,2,3;
 4//1;
 5/5=2,38=5/2;
 8/6=4,10=90,11=11/1;
 11/6=1,8=1,9=11,15=111,16=1/1,2,10;
 10/6=1,13=1/2;
 6/7=2,8=2,9=2,10=2,28=1/1;
 7/10=1,18=20,25=1/1,2,3,16;
 1/10=4,14=-1,18=20,19=15,26=3/3(2);
 2/9=110/2;
 99//99;
 2/9=110/2;
 3/5=1,6=6,7=10,11=2,16=1,25=1,30=1,71=1,74=-34/1,2,3;
 4/5=5,16=3,69=1/1;
 5/5=2,38=5/2;
 7//1,2,3,16;
 1/14=-1,18=20,19=15,26=3/3(-5);
 2/9=110/2;
 6/7=2,8=2,9=2,10=2,19=2,28=1/1;
 99/9=1/99;
 Leave Link    1 at Wed Sep  3 14:14:16 2025, MaxMem=  8053063680 cpu:         1.4
 (Enter /nexus/posix0/bmm/home/sucerqdl/sw/g09/l101.exe)
 ------------------------------
 Gaussian input prepared by ASE
 ------------------------------
 Symbolic Z-matrix:
 Charge =  0 Multiplicity = 1
 C                     51.21     52.47     54.76 
 H                     50.88     53.45     55.1 
 H                     50.62     52.16     53.9 
 H                     51.1      51.75     55.57 
 C                     52.66     52.51     54.35 
 O                     53.22     51.51     53.95 
 N                     53.26     53.68     54.46 
 H                     52.78     54.5      54.8 
 C                     54.66     53.81     54.09 
 H                     54.76     53.53     53.04 
 H                     55.25     53.13     54.69 
 C                     55.17     55.22     54.28 
 O                     54.44     56.1      54.71 
 N                     56.45     55.42     53.96 
 H                     57.02     54.66     53.62 
 C                     57.03     56.75     54.12 
 H                     58.07     56.74     53.82 
 H                     56.46     57.44     53.5 
 H                     56.94     57.05     55.16 
 
 The following ModRedundant input section has been read:
 
 NAtoms=     19 NQM=       19 NQMF=       0 NMMI=      0 NMMIF=      0
                NMic=       0 NMicF=      0.
                    Isotopes and Nuclear Properties:
 (Nuclear quadrupole moments (NQMom) in fm**2, nuclear magnetic moments (NMagM)
  in nuclear magnetons)

  Atom         1           2           3           4           5           6           7           8           9          10
 IAtWgt=          12           1           1           1          12          16          14           1          12           1
 AtmWgt=  12.0000000   1.0078250   1.0078250   1.0078250  12.0000000  15.9949146  14.0030740   1.0078250  12.0000000   1.0078250
 NucSpn=           0           1           1           1           0           0           2           1           0           1
 AtZEff=   0.0000000   0.0000000   0.0000000   0.0000000   0.0000000   0.0000000   0.0000000   0.0000000   0.0000000   0.0000000
 NQMom=    0.0000000   0.0000000   0.0000000   0.0000000   0.0000000   0.0000000   2.0440000   0.0000000   0.0000000   0.0000000
 NMagM=    0.0000000   2.7928460   2.7928460   2.7928460   0.0000000   0.0000000   0.4037610   2.7928460   0.0000000   2.7928460
 AtZNuc=   6.0000000   1.0000000   1.0000000   1.0000000   6.0000000   8.0000000   7.0000000   1.0000000   6.0000000   1.0000000

  Atom        11          12          13          14          15          16          17          18          19
 IAtWgt=           1          12          16          14           1          12           1           1           1
 AtmWgt=   1.0078250  12.0000000  15.9949146  14.0030740   1.0078250  12.0000000   1.0078250   1.0078250   1.0078250
 NucSpn=           1           0           0           2           1           0           1           1           1
 AtZEff=   0.0000000   0.0000000   0.0000000   0.0000000   0.0000000   0.0000000   0.0000000   0.0000000   0.0000000
 NQMom=    0.0000000   0.0000000   0.0000000   2.0440000   0.0000000   0.0000000   0.0000000   0.0000000   0.0000000
 NMagM=    2.7928460   0.0000000   0.0000000   0.4037610   2.7928460   0.0000000   2.7928460   2.7928460   2.7928460
 AtZNuc=   1.0000000   6.0000000   8.0000000   7.0000000   1.0000000   6.0000000   1.0000000   1.0000000   1.0000000
 Leave Link  101 at Wed Sep  3 14:14:17 2025, MaxMem=  8053063680 cpu:        11.9
 (Enter /nexus/posix0/bmm/home/sucerqdl/sw/g09/l103.exe)

 GradGradGradGradGradGradGradGradGradGradGradGradGradGradGradGradGradGrad
 Berny optimization.
 Initialization pass.
                           ----------------------------
                           !    Initial Parameters    !
                           ! (Angstroms and Degrees)  !
 --------------------------                            --------------------------
 ! Name  Definition              Value          Derivative Info.                !
 --------------------------------------------------------------------------------
 ! R1    R(1,2)                  1.0885         calculate D2E/DX2 analytically  !
 ! R2    R(1,3)                  1.088          calculate D2E/DX2 analytically  !
 ! R3    R(1,4)                  1.0893         calculate D2E/DX2 analytically  !
 ! R4    R(1,5)                  1.5074         calculate D2E/DX2 analytically  !
 ! R5    R(5,6)                  1.2139         calculate D2E/DX2 analytically  !
 ! R6    R(5,7)                  1.3195         calculate D2E/DX2 analytically  !
 ! R7    R(7,8)                  1.0092         calculate D2E/DX2 analytically  !
 ! R8    R(7,9)                  1.4539         calculate D2E/DX2 analytically  !
 ! R9    R(9,10)                 1.0913         calculate D2E/DX2 analytically  !
 ! R10   R(9,11)                 1.0819         calculate D2E/DX2 analytically  !
 ! R11   R(9,12)                 1.5114         calculate D2E/DX2 analytically  !
 ! R12   R(12,13)                1.2216         calculate D2E/DX2 analytically  !
 ! R13   R(12,14)                1.3345         calculate D2E/DX2 analytically  !
 ! R14   R(14,15)                1.009          calculate D2E/DX2 analytically  !
 ! R15   R(14,16)                1.4598         calculate D2E/DX2 analytically  !
 ! R16   R(16,17)                1.0825         calculate D2E/DX2 analytically  !
 ! R17   R(16,18)                1.0888         calculate D2E/DX2 analytically  !
 ! R18   R(16,19)                1.0861         calculate D2E/DX2 analytically  !
 ! A1    A(2,1,3)              109.8162         calculate D2E/DX2 analytically  !
 ! A2    A(2,1,4)              109.4021         calculate D2E/DX2 analytically  !
 ! A3    A(2,1,5)              110.6517         calculate D2E/DX2 analytically  !
 ! A4    A(3,1,4)              110.1615         calculate D2E/DX2 analytically  !
 ! A5    A(3,1,5)              108.3122         calculate D2E/DX2 analytically  !
 ! A6    A(4,1,5)              108.4773         calculate D2E/DX2 analytically  !
 ! A7    A(1,5,6)              120.7651         calculate D2E/DX2 analytically  !
 ! A8    A(1,5,7)              115.9937         calculate D2E/DX2 analytically  !
 ! A9    A(6,5,7)              123.2407         calculate D2E/DX2 analytically  !
 ! A10   A(5,7,8)              122.1617         calculate D2E/DX2 analytically  !
 ! A11   A(5,7,9)              119.732          calculate D2E/DX2 analytically  !
 ! A12   A(8,7,9)              118.1057         calculate D2E/DX2 analytically  !
 ! A13   A(7,9,10)             108.0688         calculate D2E/DX2 analytically  !
 ! A14   A(7,9,11)             109.1347         calculate D2E/DX2 analytically  !
 ! A15   A(7,9,12)             112.108          calculate D2E/DX2 analytically  !
 ! A16   A(10,9,11)            108.8059         calculate D2E/DX2 analytically  !
 ! A17   A(10,9,12)            109.2324         calculate D2E/DX2 analytically  !
 ! A18   A(11,9,12)            109.4283         calculate D2E/DX2 analytically  !
 ! A19   A(9,12,13)            120.9751         calculate D2E/DX2 analytically  !
 ! A20   A(9,12,14)            115.6796         calculate D2E/DX2 analytically  !
 ! A21   A(13,12,14)           123.3431         calculate D2E/DX2 analytically  !
 ! A22   A(12,14,15)           120.6485         calculate D2E/DX2 analytically  !
 ! A23   A(12,14,16)           119.431          calculate D2E/DX2 analytically  !
 ! A24   A(15,14,16)           119.9167         calculate D2E/DX2 analytically  !
 ! A25   A(14,16,17)           110.0566         calculate D2E/DX2 analytically  !
 ! A26   A(14,16,18)           107.8776         calculate D2E/DX2 analytically  !
 ! A27   A(14,16,19)           108.8858         calculate D2E/DX2 analytically  !
 ! A28   A(17,16,18)           110.5504         calculate D2E/DX2 analytically  !
 ! A29   A(17,16,19)           110.3369         calculate D2E/DX2 analytically  !
 ! A30   A(18,16,19)           109.0769         calculate D2E/DX2 analytically  !
 ! D1    D(2,1,5,6)            179.4045         calculate D2E/DX2 analytically  !
 ! D2    D(2,1,5,7)             -0.3621         calculate D2E/DX2 analytically  !
 ! D3    D(3,1,5,6)            -60.1746         calculate D2E/DX2 analytically  !
 ! D4    D(3,1,5,7)            120.0588         calculate D2E/DX2 analytically  !
 ! D5    D(4,1,5,6)             59.3881         calculate D2E/DX2 analytically  !
 ! D6    D(4,1,5,7)           -120.3785         calculate D2E/DX2 analytically  !
 ! D7    D(1,5,7,8)              0.1415         calculate D2E/DX2 analytically  !
 ! D8    D(1,5,7,9)            179.8426         calculate D2E/DX2 analytically  !
 ! D9    D(6,5,7,8)           -179.6187         calculate D2E/DX2 analytically  !
 ! D10   D(6,5,7,9)              0.0824         calculate D2E/DX2 analytically  !
 ! D11   D(5,7,9,10)            59.4284         calculate D2E/DX2 analytically  !
 ! D12   D(5,7,9,11)           -58.743          calculate D2E/DX2 analytically  !
 ! D13   D(5,7,9,12)           179.8603         calculate D2E/DX2 analytically  !
 ! D14   D(8,7,9,10)          -120.8585         calculate D2E/DX2 analytically  !
 ! D15   D(8,7,9,11)           120.9702         calculate D2E/DX2 analytically  !
 ! D16   D(8,7,9,12)            -0.4266         calculate D2E/DX2 analytically  !
 ! D17   D(7,9,12,13)            0.5724         calculate D2E/DX2 analytically  !
 ! D18   D(7,9,12,14)         -179.9529         calculate D2E/DX2 analytically  !
 ! D19   D(10,9,12,13)         120.3266         calculate D2E/DX2 analytically  !
 ! D20   D(10,9,12,14)         -60.1987         calculate D2E/DX2 analytically  !
 ! D21   D(11,9,12,13)        -120.6555         calculate D2E/DX2 analytically  !
 ! D22   D(11,9,12,14)          58.8192         calculate D2E/DX2 analytically  !
 ! D23   D(9,12,14,15)          -0.318          calculate D2E/DX2 analytically  !
 ! D24   D(9,12,14,16)        -179.6114         calculate D2E/DX2 analytically  !
 ! D25   D(13,12,14,15)        179.1429         calculate D2E/DX2 analytically  !
 ! D26   D(13,12,14,16)         -0.1506         calculate D2E/DX2 analytically  !
 ! D27   D(12,14,16,17)        179.8709         calculate D2E/DX2 analytically  !
 ! D28   D(12,14,16,18)        -59.4376         calculate D2E/DX2 analytically  !
 ! D29   D(12,14,16,19)         58.8116         calculate D2E/DX2 analytically  !
 ! D30   D(15,14,16,17)          0.5721         calculate D2E/DX2 analytically  !
 ! D31   D(15,14,16,18)        121.2637         calculate D2E/DX2 analytically  !
 ! D32   D(15,14,16,19)       -120.4872         calculate D2E/DX2 analytically  !
 --------------------------------------------------------------------------------
 Trust Radius=3.00D-01 FncErr=1.00D-07 GrdErr=1.00D-06
 Number of steps in this run=     90 maximum allowed number of steps=    114.
 GradGradGradGradGradGradGradGradGradGradGradGradGradGradGradGradGradGrad

 Leave Link  103 at Wed Sep  3 14:14:17 2025, MaxMem=  8053063680 cpu:         0.3
 (Enter /nexus/posix0/bmm/home/sucerqdl/sw/g09/l202.exe)
                          Input orientation:                          
 ---------------------------------------------------------------------
 Center     Atomic      Atomic             Coordinates (Angstroms)
 Number     Number       Type             X           Y           Z
 ---------------------------------------------------------------------
      1          6           0       51.210000   52.470000   54.760000
      2          1           0       50.880000   53.450000   55.100000
      3          1           0       50.620000   52.160000   53.900000
      4          1           0       51.100000   51.750000   55.570000
      5          6           0       52.660000   52.510000   54.350000
      6          8           0       53.220000   51.510000   53.950000
      7          7           0       53.260000   53.680000   54.460000
      8          1           0       52.780000   54.500000   54.800000
      9          6           0       54.660000   53.810000   54.090000
     10          1           0       54.760000   53.530000   53.040000
     11          1           0       55.250000   53.130000   54.690000
     12          6           0       55.170000   55.220000   54.280000
     13          8           0       54.440000   56.100000   54.710000
     14          7           0       56.450000   55.420000   53.960000
     15          1           0       57.020000   54.660000   53.620000
     16          6           0       57.030000   56.750000   54.120000
     17          1           0       58.070000   56.740000   53.820000
     18          1           0       56.460000   57.440000   53.500000
     19          1           0       56.940000   57.050000   55.160000
 ---------------------------------------------------------------------
                    Distance matrix (angstroms):
                    1          2          3          4          5
     1  C    0.000000
     2  H    1.088531   0.000000
     3  H    1.088026   1.780927   0.000000
     4  H    1.089312   1.777442   1.785329   0.000000
     5  C    1.507382   2.148139   2.118160   2.121226   0.000000
     6  O    2.370190   3.249877   2.680485   2.678880   1.213919
     7  N    2.399292   2.475258   3.097354   3.102032   1.319470
     8  H    2.566593   2.191461   3.309260   3.313276   2.043771
     9  C    3.761250   3.929135   4.368089   4.371224   2.399500
    10  H    4.084666   4.393677   4.444783   4.792171   2.677032
    11  H    4.094154   4.400841   4.796030   4.461087   2.684790
    12  C    4.845049   4.712685   5.496408   5.501809   3.694469
    13  O    4.859249   4.455132   5.547261   5.551369   4.023195
    14  N    6.066309   6.017092   6.679828   6.684572   4.794194
    15  H    6.312828   6.430715   6.876656   6.878735   4.915791
    16  C    7.252613   7.047900   7.886989   7.890970   6.093226
    17  H    8.134869   8.009906   8.745587   8.748914   6.887808
    18  H    7.338324   7.043898   7.883147   8.086445   6.282308
    19  H    7.346380   7.048915   8.089629   7.897069   6.291749
                    6          7          8          9         10
     6  O    0.000000
     7  N    2.229484   0.000000
     8  H    3.139459   1.009158   0.000000
     9  C    2.717204   1.453891   2.124759   0.000000
    10  H    2.698166   2.070966   2.821152   1.091284   0.000000
    11  H    2.700537   2.077378   2.826641   1.081896   1.767088
    12  C    4.204224   2.460102   2.549686   1.511390   2.135837
    13  O    4.809792   2.703942   2.307314   2.382625   3.081590
    14  N    5.071597   3.667929   3.875681   2.411037   2.697147
    15  H    4.946858   3.975374   4.404044   2.552058   2.592470
    16  C    6.480941   4.873746   4.856686   3.776427   4.085058
    17  H    7.133884   5.736663   5.827701   4.503987   4.676387
    18  H    6.772370   5.029831   4.886307   4.094509   4.288321
    19  H    6.781895   5.038780   4.892617   4.103767   4.651580
                   11         12         13         14         15
    11  H    0.000000
    12  C    2.131338   0.000000
    13  O    3.078539   1.221556   0.000000
    14  N    2.686447   1.334466   2.250555   0.000000
    15  H    2.572683   2.042474   3.149302   1.009009   0.000000
    16  C    4.074027   2.413732   2.734721   1.459760   2.149000
    17  H    4.662767   3.306358   3.791912   2.094373   2.338568
    18  H    4.632095   2.683449   2.709262   2.071738   2.838380
    19  H    4.294578   2.693733   2.712010   2.082547   2.844310
                   16         17         18         19
    16  C    0.000000
    17  H    1.082451   0.000000
    18  H    1.088761   1.784517   0.000000
    19  H    1.086140   1.780056   1.771468   0.000000
 Stoichiometry    C5H10N2O2
 Framework group  C1[X(C5H10N2O2)]
 Deg. of freedom    51
 Full point group                 C1      NOp   1
 Largest Abelian subgroup         C1      NOp   1
 Largest concise Abelian subgroup C1      NOp   1
                         Standard orientation:                         
 ---------------------------------------------------------------------
 Center     Atomic      Atomic             Coordinates (Angstroms)
 Number     Number       Type             X           Y           Z
 ---------------------------------------------------------------------
      1          6           0        3.419581    0.854968    0.000224
      2          1           0        3.012337    1.864428   -0.006314
      3          1           0        4.021930    0.706024    0.893975
      4          1           0        4.026968    0.704022   -0.891346
      5          6           0        2.310402   -0.165777    0.001094
      6          8           0        2.559824   -1.353789   -0.002919
      7          7           0        1.081766    0.315320    0.001569
      8          1           0        0.893049    1.306673   -0.000747
      9          6           0       -0.049966   -0.597354   -0.001050
     10          1           0        0.017364   -1.222589    0.890829
     11          1           0        0.007345   -1.230844   -0.876211
     12          6           0       -1.371758    0.135549    0.003360
     13          8           0       -1.413729    1.356373   -0.001992
     14          7           0       -2.460694   -0.635824    0.002272
     15          1           0       -2.378662   -1.641458   -0.006115
     16          6           0       -3.780907   -0.012995   -0.002320
     17          1           0       -4.550478   -0.774214   -0.004927
     18          1           0       -3.860605    0.607998    0.888419
     19          1           0       -3.869611    0.616468   -0.883006
 ---------------------------------------------------------------------
 Rotational constants (GHZ):      5.2024658      0.6821902      0.6100389
 Leave Link  202 at Wed Sep  3 14:14:17 2025, MaxMem=  8053063680 cpu:         0.2
 (Enter /nexus/posix0/bmm/home/sucerqdl/sw/g09/l301.exe)
 Standard basis: 6-31+G (6D, 7F)
 Ernie: Thresh=  0.10000D-02 Tol=  0.10000D-05 Strict=F.
 There are   137 symmetry adapted cartesian basis functions of A   symmetry.
 There are   137 symmetry adapted basis functions of A   symmetry.
   137 basis functions,   274 primitive gaussians,   137 cartesian basis functions
    35 alpha electrons       35 beta electrons
       nuclear repulsion energy       452.1703934659 Hartrees.
 IExCor= 3226 DFT=T Ex+Corr=BMK ExCW=0 ScaHFX=  0.420000
 ScaDFX=  1.000000  1.000000  1.000000  1.000000 ScalE2=  1.000000  1.000000
 IRadAn=      0 IRanWt=     -1 IRanGd=            0 ICorTp=0 IEmpDi=  4
 NAtoms=   19 NActive=   19 NUniq=   19 SFac= 1.00D+00 NAtFMM=   60 NAOKFM=F Big=F
 Integral buffers will be    131072 words long.
 Raffenetti 2 integral format.
 Two-electron integral symmetry is turned on.
 Leave Link  301 at Wed Sep  3 14:14:17 2025, MaxMem=  8053063680 cpu:         1.1
 (Enter /nexus/posix0/bmm/home/sucerqdl/sw/g09/l302.exe)
 NPDir=0 NMtPBC=     1 NCelOv=     1 NCel=       1 NClECP=     1 NCelD=      1
         NCelK=      1 NCelE2=     1 NClLst=     1 CellRange=     0.0.
 One-electron integrals computed using PRISM.
 NBasis=   137 RedAO= T EigKep=  1.57D-05  NBF=   137
 NBsUse=   137 1.00D-06 EigRej= -1.00D+00 NBFU=   137
 Precomputing XC quadrature grid using
 IXCGrd= 4 IRadAn=           0 IRanWt=          -1 IRanGd=           0 AccXCQ= 0.00D+00.
 Generated NRdTot=       0 NPtTot=           0 NUsed=           0 NTot=          32
 NSgBfM=   137   137   137   137   137 MxSgAt=    19 MxSgA2=    19.
 Leave Link  302 at Wed Sep  3 14:14:18 2025, MaxMem=  8053063680 cpu:         2.9
 (Enter /nexus/posix0/bmm/home/sucerqdl/sw/g09/l303.exe)
 DipDrv:  MaxL=1.
 Leave Link  303 at Wed Sep  3 14:14:18 2025, MaxMem=  8053063680 cpu:         0.7
 (Enter /nexus/posix0/bmm/home/sucerqdl/sw/g09/l401.exe)
 ExpMin= 4.38D-02 ExpMax= 5.48D+03 ExpMxC= 8.25D+02 IAcc=2 IRadAn=         4 AccDes= 0.00D+00
 Harris functional with IExCor= 1009 and IRadAn=       4 diagonalized for initial guess.
 HarFok:  IExCor= 1009 AccDes= 0.00D+00 IRadAn=         4 IDoV= 1 UseB2=F ITyADJ=14
 ICtDFT=  3500011 ScaDFX=  1.000000  1.000000  1.000000  1.000000
 FoFCou: FMM=F IPFlag=           0 FMFlag=      100000 FMFlg1=           0
         NFxFlg=           0 DoJE=T BraDBF=F KetDBF=T FulRan=T
         wScrn=  0.000000 ICntrl=     500 IOpCl=  0 I1Cent=   200000004 NGrid=           0
         NMat0=    1 NMatS0=      1 NMatT0=    0 NMatD0=    1 NMtDS0=    0 NMtDT0=    0
 Petite list used in FoFCou.
 Harris En= -456.014565850627    
 JPrj=0 DoOrth=F DoCkMO=F.
 Leave Link  401 at Wed Sep  3 14:14:18 2025, MaxMem=  8053063680 cpu:         4.1
 (Enter /nexus/posix0/bmm/home/sucerqdl/sw/g09/l502.exe)
 Closed shell SCF:
 Using DIIS extrapolation, IDIIS=  1040.
 Integral symmetry usage will be decided dynamically.
 Keep R1 ints in memory in canonical form, NReq=46076400.
 IVT=       78102 IEndB=       78102 NGot=  8053063680 MDV=  8008301248
 LenX=  8008301248 LenY=  8008282038
 Requested convergence on RMS density matrix=1.00D-08 within 128 cycles.
 Requested convergence on MAX density matrix=1.00D-06.
 Requested convergence on             energy=1.00D-06.
 No special actions if energy rises.
 FoFCou: FMM=F IPFlag=           0 FMFlag=           0 FMFlg1=           0
         NFxFlg=           0 DoJE=F BraDBF=F KetDBF=F FulRan=T
         wScrn=  0.000000 ICntrl=     600 IOpCl=  0 I1Cent=           0 NGrid=           0
         NMat0=    1 NMatS0=   9453 NMatT0=    0 NMatD0=    1 NMtDS0=    0 NMtDT0=    0
 Symmetry not used in FoFCou.

 Cycle   1  Pass 1  IDiag  1:
 E= -455.912068096510    
 DIIS: error= 3.62D-02 at cycle   1 NSaved=   1.
 NSaved= 1 IEnMin= 1 EnMin= -455.912068096510     IErMin= 1 ErrMin= 3.62D-02
 ErrMax= 3.62D-02  0.00D+00 EMaxC= 1.00D-01 BMatC= 2.67D-01 BMatP= 2.67D-01
 IDIUse=3 WtCom= 6.38D-01 WtEn= 3.62D-01
 Coeff-Com:  0.100D+01
 Coeff-En:   0.100D+01
 Coeff:      0.100D+01
 Gap=     0.334 Goal=   None    Shift=    0.000
 GapD=    0.334 DampG=1.000 DampE=0.500 DampFc=0.5000 IDamp=-1.
 Damping current iteration by 5.00D-01
 RMSDP=3.87D-02 MaxDP=2.22D+00              OVMax= 2.48D-01

 Cycle   2  Pass 1  IDiag  1:
 E= -456.000057255469     Delta-E=       -0.087989158958 Rises=F Damp=T
 DIIS: error= 1.23D-02 at cycle   2 NSaved=   2.
 NSaved= 2 IEnMin= 2 EnMin= -456.000057255469     IErMin= 2 ErrMin= 1.23D-02
 ErrMax= 1.23D-02  0.00D+00 EMaxC= 1.00D-01 BMatC= 2.87D-02 BMatP= 2.67D-01
 IDIUse=3 WtCom= 8.77D-01 WtEn= 1.23D-01
 Coeff-Com:  0.168D+00 0.832D+00
 Coeff-En:   0.236D+00 0.764D+00
 Coeff:      0.176D+00 0.824D+00
 Gap=     0.320 Goal=   None    Shift=    0.000
 RMSDP=1.95D-02 MaxDP=1.30D+00 DE=-8.80D-02 OVMax= 1.23D-01

 Cycle   3  Pass 1  IDiag  1:
 E= -456.135638107484     Delta-E=       -0.135580852015 Rises=F Damp=F
 DIIS: error= 1.20D-02 at cycle   3 NSaved=   3.
 NSaved= 3 IEnMin= 3 EnMin= -456.135638107484     IErMin= 3 ErrMin= 1.20D-02
 ErrMax= 1.20D-02  0.00D+00 EMaxC= 1.00D-01 BMatC= 1.96D-02 BMatP= 2.87D-02
 IDIUse=3 WtCom= 8.80D-01 WtEn= 1.20D-01
 Coeff-Com:  0.421D-01 0.448D+00 0.510D+00
 Coeff-En:   0.000D+00 0.000D+00 0.100D+01
 Coeff:      0.370D-01 0.395D+00 0.568D+00
 Gap=     0.330 Goal=   None    Shift=    0.000
 RMSDP=3.04D-03 MaxDP=1.48D-01 DE=-1.36D-01 OVMax= 4.05D-02

 Cycle   4  Pass 1  IDiag  1:
 E= -456.151279170167     Delta-E=       -0.015641062684 Rises=F Damp=F
 DIIS: error= 4.02D-03 at cycle   4 NSaved=   4.
 NSaved= 4 IEnMin= 4 EnMin= -456.151279170167     IErMin= 4 ErrMin= 4.02D-03
 ErrMax= 4.02D-03  0.00D+00 EMaxC= 1.00D-01 BMatC= 2.03D-03 BMatP= 1.96D-02
 IDIUse=3 WtCom= 9.60D-01 WtEn= 4.02D-02
 Coeff-Com:  0.994D-02 0.191D-01 0.241D+00 0.730D+00
 Coeff-En:   0.000D+00 0.000D+00 0.376D-01 0.962D+00
 Coeff:      0.954D-02 0.183D-01 0.232D+00 0.740D+00
 Gap=     0.324 Goal=   None    Shift=    0.000
 RMSDP=1.08D-03 MaxDP=6.00D-02 DE=-1.56D-02 OVMax= 1.09D-02

 Cycle   5  Pass 1  IDiag  1:
 E= -456.152817058919     Delta-E=       -0.001537888751 Rises=F Damp=F
 DIIS: error= 9.26D-04 at cycle   5 NSaved=   5.
 NSaved= 5 IEnMin= 5 EnMin= -456.152817058919     IErMin= 5 ErrMin= 9.26D-04
 ErrMax= 9.26D-04  0.00D+00 EMaxC= 1.00D-01 BMatC= 1.13D-04 BMatP= 2.03D-03
 IDIUse=3 WtCom= 9.91D-01 WtEn= 9.26D-03
 Coeff-Com:  0.375D-02-0.167D-01 0.908D-01 0.380D+00 0.542D+00
 Coeff-En:   0.000D+00 0.000D+00 0.000D+00 0.000D+00 0.100D+01
 Coeff:      0.371D-02-0.166D-01 0.900D-01 0.376D+00 0.547D+00
 Gap=     0.323 Goal=   None    Shift=    0.000
 RMSDP=2.18D-04 MaxDP=1.39D-02 DE=-1.54D-03 OVMax= 3.22D-03

 Cycle   6  Pass 1  IDiag  1:
 E= -456.152915387593     Delta-E=       -0.000098328675 Rises=F Damp=F
 DIIS: error= 1.78D-04 at cycle   6 NSaved=   6.
 NSaved= 6 IEnMin= 6 EnMin= -456.152915387593     IErMin= 6 ErrMin= 1.78D-04
 ErrMax= 1.78D-04  0.00D+00 EMaxC= 1.00D-01 BMatC= 3.82D-06 BMatP= 1.13D-04
 IDIUse=3 WtCom= 9.98D-01 WtEn= 1.78D-03
 Coeff-Com:  0.149D-02-0.703D-02 0.146D-01 0.631D-01 0.165D+00 0.763D+00
 Coeff-En:   0.000D+00 0.000D+00 0.000D+00 0.000D+00 0.000D+00 0.100D+01
 Coeff:      0.149D-02-0.702D-02 0.146D-01 0.630D-01 0.165D+00 0.763D+00
 Gap=     0.323 Goal=   None    Shift=    0.000
 RMSDP=9.94D-05 MaxDP=5.57D-03 DE=-9.83D-05 OVMax= 6.09D-04

 Cycle   7  Pass 1  IDiag  1:
 E= -456.152917998042     Delta-E=       -0.000002610448 Rises=F Damp=F
 DIIS: error= 1.01D-04 at cycle   7 NSaved=   7.
 NSaved= 7 IEnMin= 7 EnMin= -456.152917998042     IErMin= 7 ErrMin= 1.01D-04
 ErrMax= 1.01D-04  0.00D+00 EMaxC= 1.00D-01 BMatC= 1.26D-06 BMatP= 3.82D-06
 IDIUse=3 WtCom= 9.99D-01 WtEn= 1.01D-03
 EnCoef did     1 forward-backward iterations
 Coeff-Com:  0.545D-03-0.217D-02-0.437D-02-0.197D-01 0.235D-01 0.466D+00
 Coeff-Com:  0.537D+00
 Coeff-En:   0.000D+00 0.000D+00 0.000D+00 0.000D+00 0.000D+00 0.143D-01
 Coeff-En:   0.986D+00
 Coeff:      0.545D-03-0.217D-02-0.436D-02-0.196D-01 0.235D-01 0.465D+00
 Coeff:      0.537D+00
 Gap=     0.324 Goal=   None    Shift=    0.000
 RMSDP=2.51D-05 MaxDP=6.21D-04 DE=-2.61D-06 OVMax= 3.11D-04

 Cycle   8  Pass 1  IDiag  1:
 E= -456.152918986990     Delta-E=       -0.000000988948 Rises=F Damp=F
 DIIS: error= 2.69D-05 at cycle   8 NSaved=   8.
 NSaved= 8 IEnMin= 8 EnMin= -456.152918986990     IErMin= 8 ErrMin= 2.69D-05
 ErrMax= 2.69D-05  0.00D+00 EMaxC= 1.00D-01 BMatC= 1.06D-07 BMatP= 1.26D-06
 IDIUse=1 WtCom= 1.00D+00 WtEn= 0.00D+00
 Coeff-Com:  0.996D-04-0.130D-04-0.435D-02-0.206D-01-0.126D-01 0.111D+00
 Coeff-Com:  0.263D+00 0.663D+00
 Coeff:      0.996D-04-0.130D-04-0.435D-02-0.206D-01-0.126D-01 0.111D+00
 Coeff:      0.263D+00 0.663D+00
 Gap=     0.324 Goal=   None    Shift=    0.000
 RMSDP=9.21D-06 MaxDP=2.69D-04 DE=-9.89D-07 OVMax= 1.05D-04

 Cycle   9  Pass 1  IDiag  1:
 E= -456.152919079498     Delta-E=       -0.000000092508 Rises=F Damp=F
 DIIS: error= 5.41D-06 at cycle   9 NSaved=   9.
 NSaved= 9 IEnMin= 9 EnMin= -456.152919079498     IErMin= 9 ErrMin= 5.41D-06
 ErrMax= 5.41D-06  0.00D+00 EMaxC= 1.00D-01 BMatC= 5.88D-09 BMatP= 1.06D-07
 IDIUse=1 WtCom= 1.00D+00 WtEn= 0.00D+00
 Coeff-Com: -0.298D-04 0.203D-03-0.382D-03-0.247D-02-0.474D-02-0.326D-01
 Coeff-Com:  0.541D-02 0.205D+00 0.830D+00
 Coeff:     -0.298D-04 0.203D-03-0.382D-03-0.247D-02-0.474D-02-0.326D-01
 Coeff:      0.541D-02 0.205D+00 0.830D+00
 Gap=     0.324 Goal=   None    Shift=    0.000
 RMSDP=2.89D-06 MaxDP=1.28D-04 DE=-9.25D-08 OVMax= 3.02D-05

 Cycle  10  Pass 1  IDiag  1:
 E= -456.152919086102     Delta-E=       -0.000000006604 Rises=F Damp=F
 DIIS: error= 9.12D-07 at cycle  10 NSaved=  10.
 NSaved=10 IEnMin=10 EnMin= -456.152919086102     IErMin=10 ErrMin= 9.12D-07
 ErrMax= 9.12D-07  0.00D+00 EMaxC= 1.00D-01 BMatC= 1.56D-10 BMatP= 5.88D-09
 IDIUse=1 WtCom= 1.00D+00 WtEn= 0.00D+00
 Coeff-Com: -0.118D-04 0.554D-04 0.508D-04 0.117D-04-0.758D-03-0.124D-01
 Coeff-Com: -0.512D-02 0.269D-01 0.207D+00 0.784D+00
 Coeff:     -0.118D-04 0.554D-04 0.508D-04 0.117D-04-0.758D-03-0.124D-01
 Coeff:     -0.512D-02 0.269D-01 0.207D+00 0.784D+00
 Gap=     0.324 Goal=   None    Shift=    0.000
 RMSDP=4.73D-07 MaxDP=9.13D-06 DE=-6.60D-09 OVMax= 4.10D-06

 Cycle  11  Pass 1  IDiag  1:
 E= -456.152919086232     Delta-E=       -0.000000000130 Rises=F Damp=F
 DIIS: error= 4.84D-07 at cycle  11 NSaved=  11.
 NSaved=11 IEnMin=11 EnMin= -456.152919086232     IErMin=11 ErrMin= 4.84D-07
 ErrMax= 4.84D-07  0.00D+00 EMaxC= 1.00D-01 BMatC= 4.55D-11 BMatP= 1.56D-10
 IDIUse=1 WtCom= 1.00D+00 WtEn= 0.00D+00
 Coeff-Com: -0.228D-05 0.524D-05 0.676D-04 0.259D-03 0.164D-03-0.228D-02
 Coeff-Com: -0.268D-02-0.960D-02 0.832D-02 0.391D+00 0.615D+00
 Coeff:     -0.228D-05 0.524D-05 0.676D-04 0.259D-03 0.164D-03-0.228D-02
 Coeff:     -0.268D-02-0.960D-02 0.832D-02 0.391D+00 0.615D+00
 Gap=     0.324 Goal=   None    Shift=    0.000
 RMSDP=1.69D-07 MaxDP=1.06D-05 DE=-1.30D-10 OVMax= 1.71D-06

 Cycle  12  Pass 1  IDiag  1:
 E= -456.152919086277     Delta-E=       -0.000000000045 Rises=F Damp=F
 DIIS: error= 1.25D-07 at cycle  12 NSaved=  12.
 NSaved=12 IEnMin=12 EnMin= -456.152919086277     IErMin=12 ErrMin= 1.25D-07
 ErrMax= 1.25D-07  0.00D+00 EMaxC= 1.00D-01 BMatC= 1.37D-12 BMatP= 4.55D-11
 IDIUse=1 WtCom= 1.00D+00 WtEn= 0.00D+00
 Coeff-Com:  0.254D-06-0.202D-05 0.160D-04 0.632D-04 0.941D-04 0.246D-03
 Coeff-Com: -0.631D-03-0.405D-02-0.121D-01 0.489D-01 0.161D+00 0.807D+00
 Coeff:      0.254D-06-0.202D-05 0.160D-04 0.632D-04 0.941D-04 0.246D-03
 Coeff:     -0.631D-03-0.405D-02-0.121D-01 0.489D-01 0.161D+00 0.807D+00
 Gap=     0.324 Goal=   None    Shift=    0.000
 RMSDP=4.87D-08 MaxDP=2.13D-06 DE=-4.50D-11 OVMax= 3.93D-07

 Cycle  13  Pass 1  IDiag  1:
 E= -456.152919086265     Delta-E=        0.000000000012 Rises=F Damp=F
 DIIS: error= 2.37D-08 at cycle  13 NSaved=  13.
 NSaved=13 IEnMin=12 EnMin= -456.152919086277     IErMin=13 ErrMin= 2.37D-08
 ErrMax= 2.37D-08  0.00D+00 EMaxC= 1.00D-01 BMatC= 1.35D-13 BMatP= 1.37D-12
 IDIUse=1 WtCom= 1.00D+00 WtEn= 0.00D+00
 Coeff-Com:  0.239D-06-0.109D-05 0.316D-05 0.113D-04 0.310D-04 0.221D-03
 Coeff-Com: -0.120D-03-0.119D-02-0.549D-02-0.175D-02 0.291D-01 0.326D+00
 Coeff-Com:  0.653D+00
 Coeff:      0.239D-06-0.109D-05 0.316D-05 0.113D-04 0.310D-04 0.221D-03
 Coeff:     -0.120D-03-0.119D-02-0.549D-02-0.175D-02 0.291D-01 0.326D+00
 Coeff:      0.653D+00
 Gap=     0.324 Goal=   None    Shift=    0.000
 RMSDP=8.42D-09 MaxDP=1.49D-07 DE= 1.19D-11 OVMax= 8.04D-08

 SCF Done:  E(RBMK) =  -456.152919086     A.U. after   13 cycles
            NFock= 13  Conv=0.84D-08     -V/T= 2.0045
 KE= 4.541108107310D+02 PE=-1.969795334790D+03 EE= 6.073612115070D+02
 Leave Link  502 at Wed Sep  3 14:14:25 2025, MaxMem=  8053063680 cpu:        86.6
 (Enter /nexus/posix0/bmm/home/sucerqdl/sw/g09/l801.exe)
 DoSCS=F DFT=T ScalE2(SS,OS)=  1.000000  1.000000
 Range of M.O.s used for correlation:     1   137
 NBasis=   137 NAE=    35 NBE=    35 NFC=     0 NFV=     0
 NROrb=    137 NOA=    35 NOB=    35 NVA=   102 NVB=   102

 **** Warning!!: The largest alpha MO coefficient is  0.56140736D+02

 Leave Link  801 at Wed Sep  3 14:14:25 2025, MaxMem=  8053063680 cpu:         0.3
 (Enter /nexus/posix0/bmm/home/sucerqdl/sw/g09/l1101.exe)
 Using compressed storage, NAtomX=    19.
 Will process     20 centers per pass.
 Leave Link 1101 at Wed Sep  3 14:14:25 2025, MaxMem=  8053063680 cpu:         1.6
 (Enter /nexus/posix0/bmm/home/sucerqdl/sw/g09/l1102.exe)
 Symmetrizing basis deriv contribution to polar:
 IMax=3 JMax=2 DiffMx= 0.00D+00
 Leave Link 1102 at Wed Sep  3 14:14:25 2025, MaxMem=  8053063680 cpu:         0.4
 (Enter /nexus/posix0/bmm/home/sucerqdl/sw/g09/l1110.exe)
 Forming Gx(P) for the SCF density, NAtomX=    19.
 Integral derivatives from FoFJK, PRISM(SPDF).
 Do as many integral derivatives as possible in FoFJK.
 G2DrvN: MDV=    8053063424.
 G2DrvN: will do    20 centers at a time, making    1 passes.
 Calling FoFCou, ICntrl=  3107 FMM=F I1Cent=   0 AccDes= 0.00D+00.
 FoFJK:  IHMeth= 1 ICntrl=    3107 DoSepK=F KAlg= 0 I1Cent=   0 FoldK=F
 IRaf=         0 NMat=   1 IRICut=       1 DoRegI=T DoRafI=F ISym2E= 0.
 FoFCou: FMM=F IPFlag=           0 FMFlag=      100000 FMFlg1=           0
         NFxFlg=           0 DoJE=F BraDBF=F KetDBF=F FulRan=T
         wScrn=  0.000000 ICntrl=    3107 IOpCl=  0 I1Cent=           0 NGrid=           0
         NMat0=    1 NMatS0=      1 NMatT0=    0 NMatD0=    1 NMtDS0=    0 NMtDT0=    0
 Symmetry not used in FoFCou.
 End of G2Drv F.D. properties file   721 does not exist.
 End of G2Drv F.D. properties file   722 does not exist.
 End of G2Drv F.D. properties file   788 does not exist.
 Leave Link 1110 at Wed Sep  3 14:14:34 2025, MaxMem=  8053063680 cpu:       147.3
 (Enter /nexus/posix0/bmm/home/sucerqdl/sw/g09/l1002.exe)
 Minotr:  Closed shell wavefunction.
          IDoAtm=1111111111111111111
          Direct CPHF calculation.
          Differentiating once with respect to nuclear coordinates.
          Requested convergence is 1.0D-08 RMS, and 1.0D-07 maximum.
          Secondary convergence is 1.0D-12 RMS, and 1.0D-12 maximum.
          NewPWx=T KeepS1=F KeepF1=F KeepIn=T MapXYZ=F SortEE=F KeepMc=T.
          MDV=    8053063349 using IRadAn=       2.
 Generate precomputed XC quadrature information.
 Keep R1 ints in memory in canonical form, NReq=46004208.
 FoFCou: FMM=F IPFlag=           0 FMFlag=           0 FMFlg1=           0
         NFxFlg=           0 DoJE=F BraDBF=F KetDBF=F FulRan=T
         wScrn=  0.000000 ICntrl=     600 IOpCl=  0 I1Cent=           0 NGrid=           0
         NMat0=    1 NMatS0=   9453 NMatT0=    0 NMatD0=    1 NMtDS0=    0 NMtDT0=    0
 Symmetry not used in FoFCou.
          Solving linear equations simultaneously, MaxMat=       0.
          There are    60 degrees of freedom in the 1st order CPHF.  IDoFFX=6 NUNeed=     0.
     54 vectors produced by pass  0 Test12= 5.95D-15 1.67D-09 XBig12= 1.46D-01 1.04D-01.
 AX will form    54 AO Fock derivatives at one time.
     54 vectors produced by pass  1 Test12= 5.95D-15 1.67D-09 XBig12= 9.11D-03 3.00D-02.
     54 vectors produced by pass  2 Test12= 5.95D-15 1.67D-09 XBig12= 9.08D-05 1.55D-03.
     54 vectors produced by pass  3 Test12= 5.95D-15 1.67D-09 XBig12= 2.70D-07 7.91D-05.
     54 vectors produced by pass  4 Test12= 5.95D-15 1.67D-09 XBig12= 7.62D-10 4.99D-06.
     54 vectors produced by pass  5 Test12= 5.95D-15 1.67D-09 XBig12= 1.81D-12 2.36D-07.
     22 vectors produced by pass  6 Test12= 5.95D-15 1.67D-09 XBig12= 1.27D-14 2.26D-08.
      6 vectors produced by pass  7 Test12= 5.95D-15 1.67D-09 XBig12= 5.84D-16 5.95D-09.
 InvSVY:  IOpt=1 It=  1 EMax= 3.37D-16
 Solved reduced A of dimension   352 with    60 vectors.
 End of Minotr F.D. properties file   721 does not exist.
 End of Minotr F.D. properties file   722 does not exist.
 End of Minotr F.D. properties file   788 does not exist.
 Leave Link 1002 at Wed Sep  3 14:14:44 2025, MaxMem=  8053063680 cpu:       150.1
 (Enter /nexus/posix0/bmm/home/sucerqdl/sw/g09/l601.exe)
 Copying SCF densities to generalized density rwf, IOpCl= 0 IROHF=0.

 **********************************************************************

            Population analysis using the SCF density.

 **********************************************************************

 Orbital symmetries:
       Occupied  (A) (A) (A) (A) (A) (A) (A) (A) (A) (A) (A) (A)
                 (A) (A) (A) (A) (A) (A) (A) (A) (A) (A) (A) (A)
                 (A) (A) (A) (A) (A) (A) (A) (A) (A) (A) (A)
       Virtual   (A) (A) (A) (A) (A) (A) (A) (A) (A) (A) (A) (A)
                 (A) (A) (A) (A) (A) (A) (A) (A) (A) (A) (A) (A)
                 (A) (A) (A) (A) (A) (A) (A) (A) (A) (A) (A) (A)
                 (A) (A) (A) (A) (A) (A) (A) (A) (A) (A) (A) (A)
                 (A) (A) (A) (A) (A) (A) (A) (A) (A) (A) (A) (A)
                 (A) (A) (A) (A) (A) (A) (A) (A) (A) (A) (A) (A)
                 (A) (A) (A) (A) (A) (A) (A) (A) (A) (A) (A) (A)
                 (A) (A) (A) (A) (A) (A) (A) (A) (A) (A) (A) (A)
                 (A) (A) (A) (A) (A) (A)
 The electronic state is 1-A.
 Alpha  occ. eigenvalues --  -19.53790 -19.51016 -14.72489 -14.70623 -10.61583
 Alpha  occ. eigenvalues --  -10.59290 -10.53157 -10.51984 -10.47346  -1.17439
 Alpha  occ. eigenvalues --   -1.15404  -1.03551  -1.02258  -0.85427  -0.80981
 Alpha  occ. eigenvalues --   -0.76455  -0.67578  -0.65945  -0.60487  -0.56095
 Alpha  occ. eigenvalues --   -0.53934  -0.53455  -0.52018  -0.51383  -0.49136
 Alpha  occ. eigenvalues --   -0.47121  -0.45948  -0.44430  -0.44147  -0.43689
 Alpha  occ. eigenvalues --   -0.40416  -0.32572  -0.31881  -0.29846  -0.29552
 Alpha virt. eigenvalues --    0.02832   0.03910   0.04857   0.05130   0.06376
 Alpha virt. eigenvalues --    0.06618   0.06912   0.08040   0.09077   0.09216
 Alpha virt. eigenvalues --    0.09726   0.11034   0.11711   0.12352   0.13581
 Alpha virt. eigenvalues --    0.13658   0.15477   0.15598   0.15738   0.17668
 Alpha virt. eigenvalues --    0.19720   0.20334   0.20462   0.21394   0.21902
 Alpha virt. eigenvalues --    0.22354   0.22886   0.24485   0.24588   0.24751
 Alpha virt. eigenvalues --    0.27142   0.27502   0.28236   0.28900   0.29306
 Alpha virt. eigenvalues --    0.29945   0.30266   0.31170   0.31492   0.32924
 Alpha virt. eigenvalues --    0.33852   0.34141   0.35767   0.36822   0.37207
 Alpha virt. eigenvalues --    0.38442   0.39929   0.40705   0.42828   0.45315
 Alpha virt. eigenvalues --    0.46344   0.48010   0.48831   0.52551   0.57465
 Alpha virt. eigenvalues --    0.58899   0.70686   0.71395   0.71464   0.73579
 Alpha virt. eigenvalues --    0.73924   0.73980   0.78596   0.78895   0.81034
 Alpha virt. eigenvalues --    0.81843   0.87627   0.89748   0.93452   0.93703
 Alpha virt. eigenvalues --    0.98018   0.99533   1.01501   1.08059   1.10230
 Alpha virt. eigenvalues --    1.11797   1.12053   1.13387   1.15036   1.17666
 Alpha virt. eigenvalues --    1.18857   1.21231   1.21732   1.25239   1.27005
 Alpha virt. eigenvalues --    1.32207   1.35128   1.35443   1.37282   1.38166
 Alpha virt. eigenvalues --    1.45711   1.48343   1.49024   1.54581   1.56506
 Alpha virt. eigenvalues --    1.57296   1.61765   1.69633   1.77536   1.89325
 Alpha virt. eigenvalues --    2.16005   2.18102
          Condensed to atoms (all electrons):
               1          2          3          4          5          6
     1  C    6.699306   0.394214   0.427668   0.428835  -0.460974  -0.052334
     2  H    0.394214   0.541771  -0.027077  -0.027605  -0.078105   0.006620
     3  H    0.427668  -0.027077   0.466575  -0.018952  -0.071522  -0.005085
     4  H    0.428835  -0.027605  -0.018952   0.466630  -0.072199  -0.005143
     5  C   -0.460974  -0.078105  -0.071522  -0.072199   6.144849   0.399546
     6  O   -0.052334   0.006620  -0.005085  -0.005143   0.399546   8.557211
     7  N   -0.476702   0.008598   0.004272   0.004249  -0.252024  -0.292501
     8  H    0.010866   0.003529   0.000045   0.000041   0.021820   0.005067
     9  C   -0.429489  -0.002439  -0.004637  -0.004807  -1.073854  -0.072098
    10  H   -0.001407  -0.000011   0.000046  -0.000015   0.005956   0.001521
    11  H   -0.001401  -0.000010  -0.000015   0.000044   0.006135   0.001962
    12  C    0.264583   0.001170  -0.002199  -0.002174   0.683770   0.038635
    13  O    0.001328  -0.000087   0.000017   0.000017   0.015614  -0.000903
    14  N    0.002702   0.000098  -0.000011  -0.000012   0.028909  -0.002866
    15  H    0.000124   0.000000   0.000000   0.000000   0.000654   0.000045
    16  C    0.002828   0.000089  -0.000004  -0.000005   0.012120  -0.000586
    17  H   -0.000009   0.000000   0.000000   0.000000  -0.000180   0.000000
    18  H    0.000034   0.000000   0.000000   0.000000   0.000245   0.000000
    19  H    0.000028   0.000000   0.000000   0.000000   0.000195   0.000000
               7          8          9         10         11         12
     1  C   -0.476702   0.010866  -0.429489  -0.001407  -0.001401   0.264583
     2  H    0.008598   0.003529  -0.002439  -0.000011  -0.000010   0.001170
     3  H    0.004272   0.000045  -0.004637   0.000046  -0.000015  -0.002199
     4  H    0.004249   0.000041  -0.004807  -0.000015   0.000044  -0.002174
     5  C   -0.252024   0.021820  -1.073854   0.005956   0.006135   0.683770
     6  O   -0.292501   0.005067  -0.072098   0.001521   0.001962   0.038635
     7  N    8.249297   0.260924   0.403274  -0.054162  -0.052156  -0.304895
     8  H    0.260924   0.292945  -0.114507   0.002453   0.002392   0.059266
     9  C    0.403274  -0.114507  14.080664   0.346834   0.349703  -5.738689
    10  H   -0.054162   0.002453   0.346834   0.479639  -0.033135  -0.015077
    11  H   -0.052156   0.002392   0.349703  -0.033135   0.478897  -0.017381
    12  C   -0.304895   0.059266  -5.738689  -0.015077  -0.017381   9.703374
    13  O    0.009556   0.014879   0.115781   0.001221   0.001027   0.199116
    14  N    0.011380   0.006643  -1.052510   0.015013   0.013965   0.455282
    15  H    0.001162  -0.000016  -0.013022  -0.000025   0.000045   0.014315
    16  C   -0.003778   0.002545  -0.200635   0.005121   0.004646  -0.115177
    17  H   -0.000013   0.000000  -0.004216  -0.000001  -0.000001   0.025060
    18  H   -0.000122   0.000001  -0.000385   0.000033  -0.000020  -0.024295
    19  H   -0.000135   0.000000  -0.000200  -0.000019   0.000031  -0.023429
              13         14         15         16         17         18
     1  C    0.001328   0.002702   0.000124   0.002828  -0.000009   0.000034
     2  H   -0.000087   0.000098   0.000000   0.000089   0.000000   0.000000
     3  H    0.000017  -0.000011   0.000000  -0.000004   0.000000   0.000000
     4  H    0.000017  -0.000012   0.000000  -0.000005   0.000000   0.000000
     5  C    0.015614   0.028909   0.000654   0.012120  -0.000180   0.000245
     6  O   -0.000903  -0.002866   0.000045  -0.000586   0.000000   0.000000
     7  N    0.009556   0.011380   0.001162  -0.003778  -0.000013  -0.000122
     8  H    0.014879   0.006643  -0.000016   0.002545   0.000000   0.000001
     9  C    0.115781  -1.052510  -0.013022  -0.200635  -0.004216  -0.000385
    10  H    0.001221   0.015013  -0.000025   0.005121  -0.000001   0.000033
    11  H    0.001027   0.013965   0.000045   0.004646  -0.000001  -0.000020
    12  C    0.199116   0.455282   0.014315  -0.115177   0.025060  -0.024295
    13  O    8.554514  -0.288320   0.004778  -0.031227   0.002377   0.000857
    14  N   -0.288320   8.113108   0.284096   0.182940  -0.055522  -0.052456
    15  H    0.004778   0.284096   0.321807  -0.019032  -0.004671   0.002392
    16  C   -0.031227   0.182940  -0.019032   5.334175   0.380131   0.420364
    17  H    0.002377  -0.055522  -0.004671   0.380131   0.521854  -0.026063
    18  H    0.000857  -0.052456   0.002392   0.420364  -0.026063   0.485243
    19  H    0.001370  -0.051849   0.002305   0.418949  -0.026519  -0.031713
              19
     1  C    0.000028
     2  H    0.000000
     3  H    0.000000
     4  H    0.000000
     5  C    0.000195
     6  O    0.000000
     7  N   -0.000135
     8  H    0.000000
     9  C   -0.000200
    10  H   -0.000019
    11  H    0.000031
    12  C   -0.023429
    13  O    0.001370
    14  N   -0.051849
    15  H    0.002305
    16  C    0.418949
    17  H   -0.026519
    18  H   -0.031713
    19  H    0.484832
 Mulliken charges:
               1
     1  C   -0.810202
     2  H    0.179244
     3  H    0.230879
     4  H    0.231095
     5  C    0.689045
     6  O   -0.579093
     7  N   -0.516224
     8  H    0.431107
     9  C   -0.584769
    10  H    0.246017
    11  H    0.245271
    12  C    0.798745
    13  O   -0.601914
    14  N   -0.610589
    15  H    0.405044
    16  C   -0.393466
    17  H    0.187771
    18  H    0.225884
    19  H    0.226153
 Sum of Mulliken charges =   0.00000
 Mulliken charges with hydrogens summed into heavy atoms:
               1
     1  C   -0.168984
     5  C    0.689045
     6  O   -0.579093
     7  N   -0.085117
     9  C   -0.093481
    12  C    0.798745
    13  O   -0.601914
    14  N   -0.205545
    16  C    0.246343
 APT charges:
               1
     1  C   -1.832604
     2  H    0.278015
     3  H    0.621788
     4  H    0.624768
     5  C    0.531442
     6  O   -0.534756
     7  N   -0.395330
     8  H    0.543126
     9  C   -0.859079
    10  H    0.441309
    11  H    0.443472
    12  C    0.625792
    13  O   -0.644104
    14  N   -0.226282
    15  H    0.625563
    16  C   -1.804173
    17  H    0.764639
    18  H    0.390685
    19  H    0.405728
 Sum of APT charges =   0.00000
 APT charges with hydrogens summed into heavy atoms:
               1
     1  C   -0.308034
     5  C    0.531442
     6  O   -0.534756
     7  N    0.147796
     9  C    0.025703
    12  C    0.625792
    13  O   -0.644104
    14  N    0.399281
    16  C   -0.243121
 Electronic spatial extent (au):  <R**2>=           1815.4686
 Charge=              0.0000 electrons
 Dipole moment (field-independent basis, Debye):
    X=             -3.3939    Y=             -0.2993    Z=             -0.0113  Tot=              3.4071
 Quadrupole moment (field-independent basis, Debye-Ang):
   XX=            -48.6098   YY=            -60.1429   ZZ=            -54.3568
   XY=             17.5349   XZ=              0.0827   YZ=              0.0180
 Traceless Quadrupole moment (field-independent basis, Debye-Ang):
   XX=              5.7600   YY=             -5.7731   ZZ=              0.0130
   XY=             17.5349   XZ=              0.0827   YZ=              0.0180
 Octapole moment (field-independent basis, Debye-Ang**2):
  XXX=            -51.1533  YYY=             -3.6197  ZZZ=             -0.0088  XYY=            -14.5259
  XXY=             15.4639  XXZ=             -0.2513  XZZ=              2.0245  YZZ=             -0.3403
  YYZ=             -0.0922  XYZ=             -0.1556
 Hexadecapole moment (field-independent basis, Debye-Ang**3):
 XXXX=          -1833.4480 YYYY=           -297.6164 ZZZZ=            -72.6521 XXXY=             98.7348
 XXXZ=              1.2188 YYYX=             49.1036 YYYZ=              0.0745 ZZZX=              0.0609
 ZZZY=              0.0228 XXYY=           -418.5043 XXZZ=           -340.4204 YYZZ=            -61.1856
 XXYZ=             -0.0311 YYXZ=              0.1522 ZZXY=             -6.4743
 N-N= 4.521703934659D+02 E-N=-1.969795334280D+03  KE= 4.541108107310D+02
  Exact polarizability:   0.000   0.000   0.000   0.000   0.000   0.000
 Approx polarizability:  87.519  -1.395 103.852   0.057  -0.099  61.450
 No NMR shielding tensors so no spin-rotation constants.
 Leave Link  601 at Wed Sep  3 14:14:44 2025, MaxMem=  8053063680 cpu:         1.3
 (Enter /nexus/posix0/bmm/home/sucerqdl/sw/g09/l701.exe)
 Compute integral second derivatives.
 ... and contract with generalized density number  0.
 Leave Link  701 at Wed Sep  3 14:14:44 2025, MaxMem=  8053063680 cpu:         1.5
 (Enter /nexus/posix0/bmm/home/sucerqdl/sw/g09/l702.exe)
 L702 exits ... SP integral derivatives will be done elsewhere.
 Leave Link  702 at Wed Sep  3 14:14:44 2025, MaxMem=  8053063680 cpu:         0.3
 (Enter /nexus/posix0/bmm/home/sucerqdl/sw/g09/l703.exe)
 Compute integral second derivatives, UseDBF=F ICtDFT=           0.
 Integral derivatives from FoFJK, PRISM(SPDF).
 Calling FoFJK, ICntrl=    100147 FMM=F ISym2X=0 I1Cent= 0 IOpClX= 0 NMat=1 NMatS=1 NMatT=0.
 FoFJK:  IHMeth= 1 ICntrl=  100147 DoSepK=F KAlg= 0 I1Cent=   0 FoldK=F
 IRaf=         0 NMat=   1 IRICut=       1 DoRegI=T DoRafI=F ISym2E= 0.
 FoFCou: FMM=F IPFlag=           0 FMFlag=      100000 FMFlg1=         800
         NFxFlg=           0 DoJE=F BraDBF=F KetDBF=F FulRan=T
         wScrn=  0.000000 ICntrl=  100147 IOpCl=  0 I1Cent=           0 NGrid=           0
         NMat0=    1 NMatS0=      1 NMatT0=    0 NMatD0=    1 NMtDS0=    0 NMtDT0=    0
 Symmetry not used in FoFCou.
 Leave Link  703 at Wed Sep  3 14:14:51 2025, MaxMem=  8053063680 cpu:       110.7
 (Enter /nexus/posix0/bmm/home/sucerqdl/sw/g09/l716.exe)
 Dipole        =-1.33526356D+00-1.17772871D-01-4.45516882D-03
 Polarizability= 0.00000000D+00 0.00000000D+00 0.00000000D+00
                 0.00000000D+00 0.00000000D+00 0.00000000D+00
 ***** Axes restored to original set *****
 -------------------------------------------------------------------
 Center     Atomic                   Forces (Hartrees/Bohr)
 Number     Number              X              Y              Z
 -------------------------------------------------------------------
      1        6          -0.000872588    0.006450126    0.002616357
      2        1          -0.006266194    0.003304663    0.002171700
      3        1          -0.004992441   -0.003206793   -0.002100528
      4        1          -0.003011493   -0.004180167    0.001796692
      5        6          -0.040698633    0.004134562    0.013597467
      6        8           0.030092880   -0.045906636   -0.020006014
      7        7           0.024889987    0.039200807    0.003431797
      8        1           0.002991399    0.003209601   -0.000115311
      9        6          -0.009589928   -0.001658347   -0.005234222
     10        1           0.004094869   -0.004595147   -0.005187148
     11        1           0.007557497   -0.009883580    0.004065643
     12        6          -0.004904051   -0.026246175   -0.003538324
     13        8          -0.023004051    0.031536421    0.013762316
     14        7           0.021910243    0.000912588   -0.004965374
     15        1          -0.000187041    0.000494929   -0.000031153
     16        6          -0.006280686   -0.005639527   -0.002371545
     17        1           0.006692885   -0.000643536   -0.002365585
     18        1           0.000549631    0.007551098   -0.001430561
     19        1           0.001027716    0.005165112    0.005903793
 -------------------------------------------------------------------
 Cartesian Forces:  Max     0.045906636 RMS     0.014007911
 FormGI is forming the generalized inverse of G from B-inverse, IUseBI=4.
 Leave Link  716 at Wed Sep  3 14:14:51 2025, MaxMem=  8053063680 cpu:         0.5
 (Enter /nexus/posix0/bmm/home/sucerqdl/sw/g09/l103.exe)

 GradGradGradGradGradGradGradGradGradGradGradGradGradGradGradGradGradGrad
 Berny optimization.
 Red2BG is reusing G-inverse.
 Internal  Forces:  Max     0.058292732 RMS     0.010953761
 Search for a local minimum.
 Step number   1 out of a maximum of   90
 All quantities printed in internal units (Hartrees-Bohrs-Radians)
 RMS Force = .10954D-01 SwitMx=.10000D-02 MixMth= 1
 Mixed Optimization -- RFO/linear search
 Second derivative matrix not updated -- analytic derivatives used.
 ITU=  0
     Eigenvalues ---    0.00056   0.00105   0.00194   0.00450   0.00922
     Eigenvalues ---    0.01025   0.02102   0.02505   0.04315   0.04475
     Eigenvalues ---    0.05455   0.05729   0.06188   0.06298   0.06601
     Eigenvalues ---    0.06768   0.09686   0.13096   0.14018   0.14135
     Eigenvalues ---    0.14353   0.14533   0.15623   0.16441   0.18239
     Eigenvalues ---    0.19612   0.21644   0.22263   0.24945   0.25653
     Eigenvalues ---    0.26337   0.27614   0.28623   0.35640   0.36437
     Eigenvalues ---    0.36843   0.37026   0.37077   0.37305   0.37353
     Eigenvalues ---    0.38302   0.39034   0.40391   0.40817   0.44157
     Eigenvalues ---    0.49614   0.50099   0.56968   0.61570   0.89581
     Eigenvalues ---    0.94656
 RFO step:  Lambda=-1.43628353D-02 EMin= 5.59347055D-04
 Linear search not attempted -- first point.
 Iteration  1 RMS(Cart)=  0.04824327 RMS(Int)=  0.00050084
 Iteration  2 RMS(Cart)=  0.00096256 RMS(Int)=  0.00016701
 Iteration  3 RMS(Cart)=  0.00000061 RMS(Int)=  0.00016701
 ITry= 1 IFail=0 DXMaxC= 1.26D-01 DCOld= 1.00D+10 DXMaxT= 3.00D-01 DXLimC= 3.00D+00 Rises=F
 Variable       Old X    -DE/DX   Delta X   Delta X   Delta X     New X
                                 (Linear)    (Quad)   (Total)
    R1        2.05703   0.00555   0.00000   0.01330   0.01330   2.07032
    R2        2.05607   0.00528   0.00000   0.01519   0.01519   2.07126
    R3        2.05850   0.00440   0.00000   0.01290   0.01290   2.07140
    R4        2.84854   0.01572   0.00000   0.02284   0.02284   2.87138
    R5        2.29397   0.05829   0.00000   0.05696   0.05696   2.35093
    R6        2.49344   0.04681   0.00000   0.06478   0.06478   2.55821
    R7        1.90703   0.00115   0.00000   0.00348   0.00348   1.91051
    R8        2.74746  -0.00197   0.00000  -0.01053  -0.01053   2.73693
    R9        2.06223   0.00655   0.00000   0.01735   0.01735   2.07958
   R10        2.04449   0.01259   0.00000   0.03300   0.03300   2.07749
   R11        2.85611   0.01146   0.00000   0.03243   0.03243   2.88855
   R12        2.30841   0.04131   0.00000   0.04194   0.04194   2.35034
   R13        2.52178   0.02518   0.00000   0.03643   0.03643   2.55821
   R14        1.90675  -0.00047   0.00000  -0.00009  -0.00009   1.90666
   R15        2.75855   0.00663   0.00000   0.00342   0.00342   2.76197
   R16        2.04554   0.00709   0.00000   0.01957   0.01957   2.06511
   R17        2.05746   0.00531   0.00000   0.01404   0.01404   2.07150
   R18        2.05251   0.00700   0.00000   0.01863   0.01863   2.07114
    A1        1.91665  -0.00337   0.00000  -0.00949  -0.00981   1.90684
    A2        1.90943  -0.00266   0.00000  -0.00307  -0.00341   1.90602
    A3        1.93124   0.00708   0.00000   0.03354   0.03320   1.96444
    A4        1.92268  -0.00419   0.00000  -0.03572  -0.03573   1.88695
    A5        1.89040   0.00202   0.00000   0.00890   0.00872   1.89913
    A6        1.89329   0.00120   0.00000   0.00583   0.00564   1.89892
    A7        2.10775   0.00317   0.00000   0.01886   0.01885   2.12660
    A8        2.02447   0.00262   0.00000   0.00951   0.00951   2.03398
    A9        2.15096  -0.00579   0.00000  -0.02835  -0.02836   2.12260
   A10        2.13212   0.00109   0.00000   0.00381   0.00381   2.13594
   A11        2.08972   0.00590   0.00000   0.01918   0.01918   2.10889
   A12        2.06133  -0.00699   0.00000  -0.02298  -0.02298   2.03835
   A13        1.88616   0.00621   0.00000   0.03256   0.03270   1.91886
   A14        1.90476   0.00442   0.00000   0.01695   0.01692   1.92168
   A15        1.95665  -0.01581   0.00000  -0.05067  -0.05038   1.90627
   A16        1.89902  -0.00447   0.00000  -0.02879  -0.02903   1.86999
   A17        1.90647   0.00453   0.00000   0.01579   0.01618   1.92265
   A18        1.90988   0.00529   0.00000   0.01429   0.01438   1.92427
   A19        2.11141   0.00358   0.00000   0.01516   0.01515   2.12657
   A20        2.01899  -0.00143   0.00000  -0.00132  -0.00133   2.01766
   A21        2.15274  -0.00214   0.00000  -0.01378  -0.01379   2.13895
   A22        2.10571  -0.00316   0.00000  -0.01429  -0.01429   2.09142
   A23        2.08446   0.00663   0.00000   0.02804   0.02804   2.11250
   A24        2.09294  -0.00347   0.00000  -0.01371  -0.01371   2.07923
   A25        1.92085  -0.00355   0.00000  -0.01949  -0.01936   1.90149
   A26        1.88282   0.00801   0.00000   0.04021   0.03992   1.92274
   A27        1.90042   0.00470   0.00000   0.02462   0.02430   1.92471
   A28        1.92947  -0.00280   0.00000  -0.01608  -0.01591   1.91355
   A29        1.92574  -0.00168   0.00000  -0.01183  -0.01174   1.91401
   A30        1.90375  -0.00437   0.00000  -0.01569  -0.01642   1.88733
    D1        3.13120   0.00026   0.00000   0.00404   0.00407   3.13527
    D2       -0.00632   0.00001   0.00000   0.00090   0.00089  -0.00543
    D3       -1.05024   0.00168   0.00000   0.01831   0.01845  -1.03179
    D4        2.09542   0.00143   0.00000   0.01516   0.01527   2.11069
    D5        1.03652  -0.00150   0.00000  -0.01609  -0.01620   1.02032
    D6       -2.10100  -0.00175   0.00000  -0.01923  -0.01938  -2.12038
    D7        0.00247   0.00012   0.00000   0.00012   0.00009   0.00256
    D8        3.13885   0.00015   0.00000   0.00183   0.00181   3.14066
    D9       -3.13494  -0.00016   0.00000  -0.00323  -0.00321  -3.13815
   D10        0.00144  -0.00012   0.00000  -0.00152  -0.00148  -0.00005
   D11        1.03722   0.00017   0.00000  -0.00602  -0.00578   1.03144
   D12       -1.02526  -0.00047   0.00000   0.00047   0.00035  -1.02491
   D13        3.13915   0.00016   0.00000   0.00393   0.00382  -3.14021
   D14       -2.10938   0.00023   0.00000  -0.00431  -0.00408  -2.11346
   D15        2.11133  -0.00042   0.00000   0.00218   0.00205   2.11338
   D16       -0.00745   0.00022   0.00000   0.00564   0.00552  -0.00192
   D17        0.00999  -0.00088   0.00000  -0.01031  -0.01032  -0.00033
   D18       -3.14077  -0.00044   0.00000  -0.00344  -0.00340   3.13901
   D19        2.10010  -0.00011   0.00000   0.00886   0.00880   2.10889
   D20       -1.05067   0.00033   0.00000   0.01573   0.01572  -1.03495
   D21       -2.10584   0.00031   0.00000  -0.00821  -0.00822  -2.11405
   D22        1.02659   0.00075   0.00000  -0.00135  -0.00130   1.02529
   D23       -0.00555  -0.00010   0.00000   0.00040   0.00043  -0.00512
   D24       -3.13481  -0.00022   0.00000  -0.00366  -0.00362  -3.13843
   D25        3.12663   0.00038   0.00000   0.00761   0.00758   3.13421
   D26       -0.00263   0.00026   0.00000   0.00356   0.00353   0.00090
   D27        3.13934  -0.00014   0.00000   0.00064   0.00067   3.14000
   D28       -1.03738  -0.00072   0.00000  -0.00571  -0.00607  -1.04345
   D29        1.02646   0.00116   0.00000   0.01172   0.01206   1.03851
   D30        0.00999  -0.00026   0.00000  -0.00338  -0.00335   0.00664
   D31        2.11645  -0.00084   0.00000  -0.00973  -0.01009   2.10636
   D32       -2.10290   0.00104   0.00000   0.00771   0.00804  -2.09486
         Item               Value     Threshold  Converged?
 Maximum Force            0.058293     0.000450     NO 
 RMS     Force            0.010954     0.000300     NO 
 Maximum Displacement     0.125706     0.001800     NO 
 RMS     Displacement     0.048452     0.001200     NO 
 Predicted change in Energy=-7.412675D-03
 Lowest energy point so far.  Saving SCF results.
 GradGradGradGradGradGradGradGradGradGradGradGradGradGradGradGradGradGrad

 Leave Link  103 at Wed Sep  3 14:14:51 2025, MaxMem=  8053063680 cpu:         1.1
 (Enter /nexus/posix0/bmm/home/sucerqdl/sw/g09/l202.exe)
                          Input orientation:                          
 ---------------------------------------------------------------------
 Center     Atomic      Atomic             Coordinates (Angstroms)
 Number     Number       Type             X           Y           Z
 ---------------------------------------------------------------------
      1          6           0       51.175476   52.483654   54.775625
      2          1           0       50.837525   53.468335   55.116883
      3          1           0       50.560631   52.164924   53.926077
      4          1           0       51.042136   51.756266   55.584728
      5          6           0       52.634694   52.482857   54.351988
      6          8           0       53.198365   51.452722   53.941158
      7          7           0       53.292300   53.662455   54.445448
      8          1           0       52.846521   54.505788   54.780388
      9          6           0       54.686473   53.767037   54.067327
     10          1           0       54.812159   53.477700   53.013045
     11          1           0       55.293830   53.074928   54.667903
     12          6           0       55.158693   55.205361   54.278759
     13          8           0       54.398023   56.088736   54.712282
     14          7           0       56.453327   55.447970   53.966209
     15          1           0       57.035768   54.698787   53.623441
     16          6           0       57.030176   56.781281   54.126570
     17          1           0       58.078815   56.753398   53.820288
     18          1           0       56.485349   57.505412   53.509778
     19          1           0       56.959740   57.102390   55.172105
 ---------------------------------------------------------------------
                    Distance matrix (angstroms):
                    1          2          3          4          5
     1  C    0.000000
     2  H    1.095567   0.000000
     3  H    1.096064   1.787057   0.000000
     4  H    1.096139   1.786596   1.774816   0.000000
     5  C    1.519468   2.187704   2.141079   2.140986   0.000000
     6  O    2.418932   3.319427   2.732233   2.728147   1.244059
     7  N    2.445308   2.552339   3.158221   3.161448   1.353748
     8  H    2.623249   2.285958   3.381535   3.385652   2.078617
     9  C    3.804714   4.000649   4.428237   4.430225   2.437201
    10  H    4.161763   4.497104   4.542301   4.877495   2.742961
    11  H    4.161976   4.496111   4.876637   4.544925   2.742509
    12  C    4.849803   4.732041   5.523660   5.527012   3.713215
    13  O    4.835849   4.439296   5.544366   5.549184   4.030075
    14  N    6.107212   6.064672   6.745656   6.747539   4.850019
    15  H    6.370036   6.493274   6.959845   6.959073   4.981022
    16  C    7.291665   7.092620   7.950218   7.951958   6.152035
    17  H    8.173094   8.056617   8.808426   8.809054   6.939646
    18  H    7.417221   7.125917   7.987265   8.184538   6.384585
    19  H    7.412666   7.119756   8.178004   7.985571   6.381121
                    6          7          8          9         10
     6  O    0.000000
     7  N    2.268491   0.000000
     8  H    3.185798   1.010997   0.000000
     9  C    2.754348   1.448319   2.107044   0.000000
    10  H    2.750684   2.096636   2.836229   1.100464   0.000000
    11  H    2.747851   2.097807   2.837135   1.099359   1.769968
    12  C    4.247254   2.427297   2.467221   1.528553   2.169546
    13  O    4.850406   2.679676   2.217549   2.426820   3.142677
    14  N    5.153389   3.661943   3.815711   2.440807   2.735675
    15  H    5.036223   3.970294   4.350353   2.566005   2.609228
    16  C    6.565874   4.878573   4.807111   3.818655   4.131971
    17  H    7.206287   5.731970   5.774985   4.526298   4.696049
    18  H    6.901117   5.083243   4.883981   4.185961   4.389621
    19  H    6.897965   5.080482   4.879996   4.184837   4.734133
                   11         12         13         14         15
    11  H    0.000000
    12  C    2.169894   0.000000
    13  O    3.144435   1.243749   0.000000
    14  N    2.732789   1.353744   2.278481   0.000000
    15  H    2.600417   2.051699   3.174150   1.008962   0.000000
    16  C    4.128558   2.451353   2.784045   1.461570   2.142418
    17  H    4.691027   3.336724   3.845212   2.089891   2.312601
    18  H    4.731824   2.764341   2.794622   2.107705   2.862346
    19  H    4.387473   2.764155   2.793085   2.108967   2.860323
                   16         17         18         19
    16  C    0.000000
    17  H    1.092808   0.000000
    18  H    1.096191   1.789155   0.000000
    19  H    1.096000   1.789283   1.775051   0.000000
 Stoichiometry    C5H10N2O2
 Framework group  C1[X(C5H10N2O2)]
 Deg. of freedom    51
 Full point group                 C1      NOp   1
 RotChk:  IX=0 Diff= 4.38D-03
 Largest Abelian subgroup         C1      NOp   1
 Largest concise Abelian subgroup C1      NOp   1
                         Standard orientation:                         
 ---------------------------------------------------------------------
 Center     Atomic      Atomic             Coordinates (Angstroms)
 Number     Number       Type             X           Y           Z
 ---------------------------------------------------------------------
      1          6           0        3.423008    0.904306   -0.002497
      2          1           0        3.015441    1.921226   -0.007909
      3          1           0        4.050081    0.770972    0.886523
      4          1           0        4.053197    0.763667   -0.888275
      5          6           0        2.337283   -0.158700   -0.000186
      6          8           0        2.607579   -1.373040   -0.000888
      7          7           0        1.057809    0.283539    0.001603
      8          1           0        0.825004    1.267364   -0.000753
      9          6           0       -0.050007   -0.649398    0.002714
     10          1           0        0.006264   -1.297852    0.890049
     11          1           0        0.005076   -1.302486   -0.879913
     12          6           0       -1.364655    0.130457    0.002669
     13          8           0       -1.389980    1.373948    0.002127
     14          7           0       -2.490648   -0.621048    0.000507
     15          1           0       -2.422201   -1.627667   -0.005413
     16          6           0       -3.812645    0.002246   -0.003743
     17          1           0       -4.574372   -0.781332   -0.006534
     18          1           0       -3.935989    0.632790    0.884420
     19          1           0       -3.931339    0.635153   -0.890623
 ---------------------------------------------------------------------
 Rotational constants (GHZ):      5.0203296      0.6726277      0.5998506
 Leave Link  202 at Wed Sep  3 14:14:52 2025, MaxMem=  8053063680 cpu:         0.0
 (Enter /nexus/posix0/bmm/home/sucerqdl/sw/g09/l301.exe)
 Standard basis: 6-31+G (6D, 7F)
 Ernie: Thresh=  0.10000D-02 Tol=  0.10000D-05 Strict=F.
 There are   137 symmetry adapted cartesian basis functions of A   symmetry.
 There are   137 symmetry adapted basis functions of A   symmetry.
   137 basis functions,   274 primitive gaussians,   137 cartesian basis functions
    35 alpha electrons       35 beta electrons
       nuclear repulsion energy       447.3079810069 Hartrees.
 IExCor= 3226 DFT=T Ex+Corr=BMK ExCW=0 ScaHFX=  0.420000
 ScaDFX=  1.000000  1.000000  1.000000  1.000000 ScalE2=  1.000000  1.000000
 IRadAn=      0 IRanWt=     -1 IRanGd=            0 ICorTp=0 IEmpDi=  4
 NAtoms=   19 NActive=   19 NUniq=   19 SFac= 1.00D+00 NAtFMM=   60 NAOKFM=F Big=F
 Integral buffers will be    131072 words long.
 Raffenetti 2 integral format.
 Two-electron integral symmetry is turned on.
 Leave Link  301 at Wed Sep  3 14:14:52 2025, MaxMem=  8053063680 cpu:         0.6
 (Enter /nexus/posix0/bmm/home/sucerqdl/sw/g09/l302.exe)
 NPDir=0 NMtPBC=     1 NCelOv=     1 NCel=       1 NClECP=     1 NCelD=      1
         NCelK=      1 NCelE2=     1 NClLst=     1 CellRange=     0.0.
 One-electron integrals computed using PRISM.
 NBasis=   137 RedAO= T EigKep=  1.95D-05  NBF=   137
 NBsUse=   137 1.00D-06 EigRej= -1.00D+00 NBFU=   137
 Precomputing XC quadrature grid using
 IXCGrd= 4 IRadAn=           0 IRanWt=          -1 IRanGd=           0 AccXCQ= 0.00D+00.
 Generated NRdTot=       0 NPtTot=           0 NUsed=           0 NTot=          32
 NSgBfM=   137   137   137   137   137 MxSgAt=    19 MxSgA2=    19.
 Leave Link  302 at Wed Sep  3 14:14:52 2025, MaxMem=  8053063680 cpu:         1.8
 (Enter /nexus/posix0/bmm/home/sucerqdl/sw/g09/l303.exe)
 DipDrv:  MaxL=1.
 Leave Link  303 at Wed Sep  3 14:14:52 2025, MaxMem=  8053063680 cpu:         0.4
 (Enter /nexus/posix0/bmm/home/sucerqdl/sw/g09/l401.exe)
 Initial guess from the checkpoint file:  "G-stretched00.chk"
 B after Tr=     0.000000    0.000000    0.000000
         Rot=    1.000000    0.000081    0.000043   -0.000426 Ang=   0.05 deg.
 Guess basis will be translated and rotated to current coordinates.
 JPrj=2 DoOrth=T DoCkMO=T.
 Generating alternative initial guess.
 ExpMin= 4.38D-02 ExpMax= 5.48D+03 ExpMxC= 8.25D+02 IAcc=2 IRadAn=         4 AccDes= 0.00D+00
 Harris functional with IExCor= 1009 and IRadAn=       4 diagonalized for initial guess.
 HarFok:  IExCor= 1009 AccDes= 0.00D+00 IRadAn=         4 IDoV= 1 UseB2=F ITyADJ=14
 ICtDFT=  3500011 ScaDFX=  1.000000  1.000000  1.000000  1.000000
 FoFCou: FMM=F IPFlag=           0 FMFlag=      100000 FMFlg1=           0
         NFxFlg=           0 DoJE=T BraDBF=F KetDBF=T FulRan=T
         wScrn=  0.000000 ICntrl=     500 IOpCl=  0 I1Cent=   200000004 NGrid=           0
         NMat0=    1 NMatS0=      1 NMatT0=    0 NMatD0=    1 NMtDS0=    0 NMtDT0=    0
 Petite list used in FoFCou.
 Harris En= -456.016289438985    
 Leave Link  401 at Wed Sep  3 14:14:52 2025, MaxMem=  8053063680 cpu:         3.6
 (Enter /nexus/posix0/bmm/home/sucerqdl/sw/g09/l502.exe)
 Closed shell SCF:
 Using DIIS extrapolation, IDIIS=  1040.
 Integral symmetry usage will be decided dynamically.
 Keep R1 ints in memory in canonical form, NReq=46076400.
 IVT=       78102 IEndB=       78102 NGot=  8053063680 MDV=  8008301248
 LenX=  8008301248 LenY=  8008282038
 Requested convergence on RMS density matrix=1.00D-08 within 128 cycles.
 Requested convergence on MAX density matrix=1.00D-06.
 Requested convergence on             energy=1.00D-06.
 No special actions if energy rises.
 FoFCou: FMM=F IPFlag=           0 FMFlag=           0 FMFlg1=           0
         NFxFlg=           0 DoJE=F BraDBF=F KetDBF=F FulRan=T
         wScrn=  0.000000 ICntrl=     600 IOpCl=  0 I1Cent=           0 NGrid=           0
         NMat0=    1 NMatS0=   9453 NMatT0=    0 NMatD0=    1 NMtDS0=    0 NMtDT0=    0
 Symmetry not used in FoFCou.

 Cycle   1  Pass 1  IDiag  1:
 E= -456.155907363042    
 DIIS: error= 5.28D-03 at cycle   1 NSaved=   1.
 NSaved= 1 IEnMin= 1 EnMin= -456.155907363042     IErMin= 1 ErrMin= 5.28D-03
 ErrMax= 5.28D-03  0.00D+00 EMaxC= 1.00D-01 BMatC= 4.07D-03 BMatP= 4.07D-03
 IDIUse=3 WtCom= 9.47D-01 WtEn= 5.28D-02
 Coeff-Com:  0.100D+01
 Coeff-En:   0.100D+01
 Coeff:      0.100D+01
 Gap=     0.509 Goal=   None    Shift=    0.000
 GapD=    0.509 DampG=2.000 DampE=1.000 DampFc=2.0000 IDamp=-1.
 RMSDP=6.78D-03 MaxDP=4.47D-01              OVMax= 2.24D-02

 Cycle   2  Pass 1  IDiag  1:
 E= -456.160379891157     Delta-E=       -0.004472528115 Rises=F Damp=F
 DIIS: error= 1.12D-03 at cycle   2 NSaved=   2.
 NSaved= 2 IEnMin= 2 EnMin= -456.160379891157     IErMin= 2 ErrMin= 1.12D-03
 ErrMax= 1.12D-03  0.00D+00 EMaxC= 1.00D-01 BMatC= 3.52D-04 BMatP= 4.07D-03
 IDIUse=3 WtCom= 9.89D-01 WtEn= 1.12D-02
 Coeff-Com:  0.895D-01 0.911D+00
 Coeff-En:   0.000D+00 0.100D+01
 Coeff:      0.885D-01 0.912D+00
 Gap=     0.327 Goal=   None    Shift=    0.000
 RMSDP=8.85D-04 MaxDP=5.00D-02 DE=-4.47D-03 OVMax= 7.76D-03

 Cycle   3  Pass 1  IDiag  1:
 E= -456.160324506584     Delta-E=        0.000055384573 Rises=F Damp=F
 DIIS: error= 1.89D-03 at cycle   3 NSaved=   3.
 NSaved= 3 IEnMin= 2 EnMin= -456.160379891157     IErMin= 2 ErrMin= 1.12D-03
 ErrMax= 1.89D-03  0.00D+00 EMaxC= 1.00D-01 BMatC= 5.17D-04 BMatP= 3.52D-04
 IDIUse=3 WtCom= 1.87D-01 WtEn= 8.13D-01
 Coeff-Com: -0.191D-01 0.558D+00 0.461D+00
 Coeff-En:   0.000D+00 0.535D+00 0.465D+00
 Coeff:     -0.357D-02 0.539D+00 0.464D+00
 Gap=     0.327 Goal=   None    Shift=    0.000
 RMSDP=6.91D-04 MaxDP=4.30D-02 DE= 5.54D-05 OVMax= 5.92D-03

 Cycle   4  Pass 1  IDiag  1:
 E= -456.160723652380     Delta-E=       -0.000399145795 Rises=F Damp=F
 DIIS: error= 5.09D-04 at cycle   4 NSaved=   4.
 NSaved= 4 IEnMin= 4 EnMin= -456.160723652380     IErMin= 4 ErrMin= 5.09D-04
 ErrMax= 5.09D-04  0.00D+00 EMaxC= 1.00D-01 BMatC= 3.41D-05 BMatP= 3.52D-04
 IDIUse=3 WtCom= 9.95D-01 WtEn= 5.09D-03
 Coeff-Com: -0.207D-01 0.215D+00 0.263D+00 0.542D+00
 Coeff-En:   0.000D+00 0.000D+00 0.000D+00 0.100D+01
 Coeff:     -0.206D-01 0.214D+00 0.262D+00 0.545D+00
 Gap=     0.324 Goal=   None    Shift=    0.000
 RMSDP=8.17D-05 MaxDP=2.18D-03 DE=-3.99D-04 OVMax= 1.51D-03

 Cycle   5  Pass 1  IDiag  1:
 E= -456.160750061774     Delta-E=       -0.000026409394 Rises=F Damp=F
 DIIS: error= 5.63D-05 at cycle   5 NSaved=   5.
 NSaved= 5 IEnMin= 5 EnMin= -456.160750061774     IErMin= 5 ErrMin= 5.63D-05
 ErrMax= 5.63D-05  0.00D+00 EMaxC= 1.00D-01 BMatC= 5.40D-07 BMatP= 3.41D-05
 IDIUse=1 WtCom= 1.00D+00 WtEn= 0.00D+00
 Coeff-Com: -0.186D-02-0.557D-02 0.119D-01 0.121D+00 0.874D+00
 Coeff:     -0.186D-02-0.557D-02 0.119D-01 0.121D+00 0.874D+00
 Gap=     0.324 Goal=   None    Shift=    0.000
 RMSDP=2.63D-05 MaxDP=1.31D-03 DE=-2.64D-05 OVMax= 1.98D-04

 Cycle   6  Pass 1  IDiag  1:
 E= -456.160750476312     Delta-E=       -0.000000414539 Rises=F Damp=F
 DIIS: error= 2.61D-05 at cycle   6 NSaved=   6.
 NSaved= 6 IEnMin= 6 EnMin= -456.160750476312     IErMin= 6 ErrMin= 2.61D-05
 ErrMax= 2.61D-05  0.00D+00 EMaxC= 1.00D-01 BMatC= 1.54D-07 BMatP= 5.40D-07
 IDIUse=1 WtCom= 1.00D+00 WtEn= 0.00D+00
 Coeff-Com:  0.446D-03-0.182D-01-0.118D-01 0.266D-01 0.474D+00 0.529D+00
 Coeff:      0.446D-03-0.182D-01-0.118D-01 0.266D-01 0.474D+00 0.529D+00
 Gap=     0.324 Goal=   None    Shift=    0.000
 RMSDP=5.88D-06 MaxDP=2.80D-04 DE=-4.15D-07 OVMax= 7.28D-05

 Cycle   7  Pass 1  IDiag  1:
 E= -456.160750607351     Delta-E=       -0.000000131039 Rises=F Damp=F
 DIIS: error= 5.71D-06 at cycle   7 NSaved=   7.
 NSaved= 7 IEnMin= 7 EnMin= -456.160750607351     IErMin= 7 ErrMin= 5.71D-06
 ErrMax= 5.71D-06  0.00D+00 EMaxC= 1.00D-01 BMatC= 2.42D-09 BMatP= 1.54D-07
 IDIUse=1 WtCom= 1.00D+00 WtEn= 0.00D+00
 Coeff-Com:  0.220D-03-0.519D-02-0.400D-02 0.140D-02 0.104D+00 0.146D+00
 Coeff-Com:  0.758D+00
 Coeff:      0.220D-03-0.519D-02-0.400D-02 0.140D-02 0.104D+00 0.146D+00
 Coeff:      0.758D+00
 Gap=     0.324 Goal=   None    Shift=    0.000
 RMSDP=1.43D-06 MaxDP=1.87D-05 DE=-1.31D-07 OVMax= 3.45D-05

 Cycle   8  Pass 1  IDiag  1:
 E= -456.160750608795     Delta-E=       -0.000000001444 Rises=F Damp=F
 DIIS: error= 4.92D-06 at cycle   8 NSaved=   8.
 NSaved= 8 IEnMin= 8 EnMin= -456.160750608795     IErMin= 8 ErrMin= 4.92D-06
 ErrMax= 4.92D-06  0.00D+00 EMaxC= 1.00D-01 BMatC= 1.82D-09 BMatP= 2.42D-09
 IDIUse=1 WtCom= 1.00D+00 WtEn= 0.00D+00
 Coeff-Com:  0.831D-04-0.774D-03-0.925D-03-0.310D-02-0.286D-02 0.921D-02
 Coeff-Com:  0.485D+00 0.513D+00
 Coeff:      0.831D-04-0.774D-03-0.925D-03-0.310D-02-0.286D-02 0.921D-02
 Coeff:      0.485D+00 0.513D+00
 Gap=     0.324 Goal=   None    Shift=    0.000
 RMSDP=7.47D-07 MaxDP=1.49D-05 DE=-1.44D-09 OVMax= 1.05D-05

 Cycle   9  Pass 1  IDiag  1:
 E= -456.160750610227     Delta-E=       -0.000000001432 Rises=F Damp=F
 DIIS: error= 8.66D-07 at cycle   9 NSaved=   9.
 NSaved= 9 IEnMin= 9 EnMin= -456.160750610227     IErMin= 9 ErrMin= 8.66D-07
 ErrMax= 8.66D-07  0.00D+00 EMaxC= 1.00D-01 BMatC= 1.12D-10 BMatP= 1.82D-09
 IDIUse=1 WtCom= 1.00D+00 WtEn= 0.00D+00
 Coeff-Com:  0.131D-04 0.315D-03 0.565D-04-0.169D-02-0.152D-01-0.161D-01
 Coeff-Com:  0.169D+00 0.252D+00 0.612D+00
 Coeff:      0.131D-04 0.315D-03 0.565D-04-0.169D-02-0.152D-01-0.161D-01
 Coeff:      0.169D+00 0.252D+00 0.612D+00
 Gap=     0.324 Goal=   None    Shift=    0.000
 RMSDP=2.38D-07 MaxDP=5.90D-06 DE=-1.43D-09 OVMax= 2.57D-06

 Cycle  10  Pass 1  IDiag  1:
 E= -456.160750610329     Delta-E=       -0.000000000103 Rises=F Damp=F
 DIIS: error= 2.17D-07 at cycle  10 NSaved=  10.
 NSaved=10 IEnMin=10 EnMin= -456.160750610329     IErMin=10 ErrMin= 2.17D-07
 ErrMax= 2.17D-07  0.00D+00 EMaxC= 1.00D-01 BMatC= 7.83D-12 BMatP= 1.12D-10
 IDIUse=1 WtCom= 1.00D+00 WtEn= 0.00D+00
 Coeff-Com: -0.417D-05 0.170D-03 0.103D-03-0.119D-03-0.440D-02-0.678D-02
 Coeff-Com:  0.588D-03 0.118D-01 0.220D+00 0.778D+00
 Coeff:     -0.417D-05 0.170D-03 0.103D-03-0.119D-03-0.440D-02-0.678D-02
 Coeff:      0.588D-03 0.118D-01 0.220D+00 0.778D+00
 Gap=     0.324 Goal=   None    Shift=    0.000
 RMSDP=9.49D-08 MaxDP=2.36D-06 DE=-1.03D-10 OVMax= 1.28D-06

 Cycle  11  Pass 1  IDiag  1:
 E= -456.160750610330     Delta-E=        0.000000000000 Rises=F Damp=F
 DIIS: error= 5.63D-08 at cycle  11 NSaved=  11.
[...]
 ! D30   D(15,14,16,17)         -0.0321         -DE/DX =    0.0                 !
 ! D31   D(15,14,16,18)        120.2125         -DE/DX =    0.0                 !
 ! D32   D(15,14,16,19)       -120.2745         -DE/DX =    0.0                 !
 --------------------------------------------------------------------------------
 Lowest energy point so far.  Saving SCF results.
 GradGradGradGradGradGradGradGradGradGradGradGradGradGradGradGradGradGrad

 Largest change from initial coordinates is atom    8       0.073 Angstoms.
 Leave Link  103 at Wed Sep  3 14:15:21 2025, MaxMem=  8053063680 cpu:         0.5
 (Enter /nexus/posix0/bmm/home/sucerqdl/sw/g09/l202.exe)
                          Input orientation:                          
 ---------------------------------------------------------------------
 Center     Atomic      Atomic             Coordinates (Angstroms)
 Number     Number       Type             X           Y           Z
 ---------------------------------------------------------------------
      1          6           0       51.170429   52.494959   54.777968
      2          1           0       50.834082   53.481630   55.115340
      3          1           0       50.552639   52.171824   53.931291
      4          1           0       51.031894   51.768682   55.588075
      5          6           0       52.629331   52.480976   54.352555
      6          8           0       53.186636   51.443499   53.939080
      7          7           0       53.302629   53.657212   54.443773
      8          1           0       52.876382   54.513749   54.775297
      9          6           0       54.696554   53.750907   54.063249
     10          1           0       54.826565   53.459885   53.009335
     11          1           0       55.305361   53.057598   54.664093
     12          6           0       55.162394   55.192490   54.278939
     13          8           0       54.390928   56.068696   54.715208
     14          7           0       56.455351   55.450453   53.967547
     15          1           0       57.042938   54.708793   53.617180
     16          6           0       57.020757   56.788471   54.129277
     17          1           0       58.069957   56.768328   53.821391
     18          1           0       56.472740   57.512712   53.514646
     19          1           0       56.952434   57.109136   55.175754
 ---------------------------------------------------------------------
                    Distance matrix (angstroms):
                    1          2          3          4          5
     1  C    0.000000
     2  H    1.095658   0.000000
     3  H    1.096787   1.787952   0.000000
     4  H    1.096788   1.787960   1.771198   0.000000
     5  C    1.519726   2.192274   2.141422   2.141419   0.000000
     6  O    2.423715   3.327473   2.732848   2.732735   1.248162
     7  N    2.451284   2.564284   3.167248   3.167367   1.358375
     8  H    2.643066   2.313414   3.405399   3.405604   2.090912
     9  C    3.810747   4.012243   4.436547   4.436671   2.443325
    10  H    4.174504   4.513940   4.558021   4.889745   2.755058
    11  H    4.174589   4.513951   4.889781   4.558242   2.755120
    12  C    4.843706   4.728731   5.522240   5.522439   3.711353
    13  O    4.811148   4.416352   5.525632   5.525860   4.013288
    14  N    6.109184   6.065670   6.752239   6.752439   4.858442
    15  H    6.382387   6.503868   6.975591   6.975768   4.998388
    16  C    7.285697   7.083958   7.949162   7.949393   6.155403
    17  H    8.171916   8.051991   8.811924   8.812035   6.947225
    18  H    7.408666   7.113810   7.984127   8.178985   6.386882
    19  H    7.408134   7.113134   8.178210   7.983937   6.386450
                    6          7          8          9         10
     6  O    0.000000
     7  N    2.273477   0.000000
     8  H    3.197179   1.012546   0.000000
     9  C    2.760327   1.447966   2.098087   0.000000
    10  H    2.760364   2.102126   2.834161   1.101060   0.000000
    11  H    2.760426   2.102145   2.834199   1.101061   1.768984
    12  C    4.251360   2.417225   2.435758   1.530258   2.174073
    13  O    4.842018   2.659572   2.171479   2.427056   3.147329
    14  N    5.171169   3.658163   3.786673   2.447648   2.744718
    15  H    5.063283   3.972278   4.328911   2.573333   2.615637
    16  C    6.580682   4.871156   4.771535   3.825320   4.141042
    17  H    7.225958   5.726588   5.741627   4.532457   4.703702
    18  H    6.914765   5.077180   4.849413   4.196067   4.403480
    19  H    6.914481   5.076677   4.848773   4.195755   4.746549
                   11         12         13         14         15
    11  H    0.000000
    12  C    2.174062   0.000000
    13  O    3.147302   1.246286   0.000000
    14  N    2.744705   1.354712   2.281022   0.000000
    15  H    2.615654   2.051422   3.176186   1.008997   0.000000
    16  C    4.141017   2.454193   2.788797   1.461551   2.141913
    17  H    4.703472   3.338642   3.850149   2.089284   2.310444
    18  H    4.746793   2.772107   2.803653   2.111477   2.863145
    19  H    4.403363   2.771652   2.802843   2.111418   2.863388
                   16         17         18         19
    16  C    0.000000
    17  H    1.093627   0.000000
    18  H    1.096640   1.788660   0.000000
    19  H    1.096635   1.788661   1.775461   0.000000
 Stoichiometry    C5H10N2O2
 Framework group  C1[X(C5H10N2O2)]
 Deg. of freedom    51
 Full point group                 C1      NOp   1
 RotChk:  IX=0 Diff= 4.00D-16
 Largest Abelian subgroup         C1      NOp   1
 Largest concise Abelian subgroup C1      NOp   1
                         Standard orientation:                         
 ---------------------------------------------------------------------
 Center     Atomic      Atomic             Coordinates (Angstroms)
 Number     Number       Type             X           Y           Z
 ---------------------------------------------------------------------
      1          6           0        3.415557    0.917649    0.000053
      2          1           0        3.005427    1.933651   -0.000112
      3          1           0        4.048214    0.782744    0.885766
      4          1           0        4.048497    0.782559   -0.885432
      5          6           0        2.338807   -0.154813   -0.000011
      6          8           0        2.618460   -1.371244   -0.000011
      7          7           0        1.050108    0.274651   -0.000046
      8          1           0        0.794016    1.254277   -0.000007
      9          6           0       -0.050359   -0.666400   -0.000026
     10          1           0        0.004140   -1.319878    0.884467
     11          1           0        0.004083   -1.319889   -0.884517
     12          6           0       -1.362254    0.121397   -0.000004
     13          8           0       -1.374503    1.367623   -0.000046
     14          7           0       -2.497525   -0.617794    0.000032
     15          1           0       -2.438457   -1.625061    0.000081
     16          6           0       -3.814209    0.016615    0.000030
     17          1           0       -4.581800   -0.762373   -0.000493
     18          1           0       -3.934787    0.648745    0.888001
     19          1           0       -3.934331    0.649499   -0.887459
 ---------------------------------------------------------------------
 Rotational constants (GHZ):      5.0102371      0.6726286      0.5996954
 Leave Link  202 at Wed Sep  3 14:15:21 2025, MaxMem=  8053063680 cpu:         0.0
 (Enter /nexus/posix0/bmm/home/sucerqdl/sw/g09/l601.exe)
 Copying SCF densities to generalized density rwf, IOpCl= 0 IROHF=0.

 **********************************************************************

            Population analysis using the SCF density.

 **********************************************************************

 Orbital symmetries:
       Occupied  (A) (A) (A) (A) (A) (A) (A) (A) (A) (A) (A) (A)
                 (A) (A) (A) (A) (A) (A) (A) (A) (A) (A) (A) (A)
                 (A) (A) (A) (A) (A) (A) (A) (A) (A) (A) (A)
       Virtual   (A) (A) (A) (A) (A) (A) (A) (A) (A) (A) (A) (A)
                 (A) (A) (A) (A) (A) (A) (A) (A) (A) (A) (A) (A)
                 (A) (A) (A) (A) (A) (A) (A) (A) (A) (A) (A) (A)
                 (A) (A) (A) (A) (A) (A) (A) (A) (A) (A) (A) (A)
                 (A) (A) (A) (A) (A) (A) (A) (A) (A) (A) (A) (A)
                 (A) (A) (A) (A) (A) (A) (A) (A) (A) (A) (A) (A)
                 (A) (A) (A) (A) (A) (A) (A) (A) (A) (A) (A) (A)
                 (A) (A) (A) (A) (A) (A) (A) (A) (A) (A) (A) (A)
                 (A) (A) (A) (A) (A) (A)
 The electronic state is 1-A.
 Alpha  occ. eigenvalues --  -19.54276 -19.51498 -14.72915 -14.70714 -10.62136
 Alpha  occ. eigenvalues --  -10.60011 -10.53791 -10.52418 -10.48040  -1.16213
 Alpha  occ. eigenvalues --   -1.13397  -1.03093  -1.01277  -0.84818  -0.80781
 Alpha  occ. eigenvalues --   -0.76236  -0.67339  -0.65598  -0.60094  -0.55226
 Alpha  occ. eigenvalues --   -0.53943  -0.53573  -0.51279  -0.51264  -0.48566
 Alpha  occ. eigenvalues --   -0.46838  -0.45824  -0.44561  -0.43902  -0.43217
 Alpha  occ. eigenvalues --   -0.39755  -0.32936  -0.31854  -0.29778  -0.29522
 Alpha virt. eigenvalues --    0.02763   0.02791   0.04818   0.05016   0.05050
 Alpha virt. eigenvalues --    0.06636   0.06859   0.07974   0.09117   0.09254
 Alpha virt. eigenvalues --    0.09671   0.11044   0.11646   0.12278   0.13584
 Alpha virt. eigenvalues --    0.13703   0.15096   0.15553   0.15947   0.17661
 Alpha virt. eigenvalues --    0.19712   0.20094   0.20528   0.20936   0.21572
 Alpha virt. eigenvalues --    0.22190   0.22834   0.24093   0.24229   0.24384
 Alpha virt. eigenvalues --    0.26558   0.27172   0.27826   0.28419   0.29066
 Alpha virt. eigenvalues --    0.29839   0.30042   0.30663   0.31109   0.32604
 Alpha virt. eigenvalues --    0.33701   0.33926   0.35468   0.36435   0.36867
 Alpha virt. eigenvalues --    0.37957   0.39375   0.40637   0.42083   0.44198
 Alpha virt. eigenvalues --    0.45300   0.46696   0.48665   0.50117   0.54767
 Alpha virt. eigenvalues --    0.56997   0.70566   0.71205   0.71605   0.72876
 Alpha virt. eigenvalues --    0.73099   0.73986   0.78164   0.78595   0.81080
 Alpha virt. eigenvalues --    0.81448   0.87625   0.88807   0.91725   0.93609
 Alpha virt. eigenvalues --    0.97344   0.98148   1.01508   1.07092   1.09878
 Alpha virt. eigenvalues --    1.10424   1.11683   1.12342   1.15138   1.17431
 Alpha virt. eigenvalues --    1.17927   1.20078   1.21660   1.24675   1.26757
 Alpha virt. eigenvalues --    1.33456   1.35120   1.35854   1.37549   1.37869
 Alpha virt. eigenvalues --    1.45395   1.47020   1.49002   1.54216   1.55532
 Alpha virt. eigenvalues --    1.56651   1.62345   1.68094   1.78167   1.87191
 Alpha virt. eigenvalues --    2.12969   2.14660
          Condensed to atoms (all electrons):
               1          2          3          4          5          6
     1  C    6.557562   0.386298   0.421630   0.421654  -0.421625  -0.062512
     2  H    0.386298   0.527157  -0.026351  -0.026351  -0.063969   0.005194
     3  H    0.421630  -0.026351   0.468354  -0.021538  -0.069351  -0.004039
     4  H    0.421654  -0.026351  -0.021538   0.468350  -0.069374  -0.004039
     5  C   -0.421625  -0.063969  -0.069351  -0.069374   6.047425   0.406694
     6  O   -0.062512   0.005194  -0.004039  -0.004039   0.406694   8.507283
     7  N   -0.395901   0.007102   0.003988   0.003992  -0.245513  -0.257404
     8  H    0.011166   0.002552   0.000024   0.000024   0.020598   0.004006
     9  C   -0.392009  -0.002772  -0.003931  -0.003932  -0.888798  -0.056732
    10  H   -0.000723  -0.000006   0.000035  -0.000012   0.005891   0.001641
    11  H   -0.000718  -0.000006  -0.000012   0.000035   0.005905   0.001638
    12  C    0.244073   0.001902  -0.001655  -0.001656   0.554404   0.036972
    13  O    0.004053  -0.000119   0.000018   0.000018   0.013832  -0.001052
    14  N    0.003603   0.000074  -0.000008  -0.000008   0.019747  -0.002335
    15  H    0.000086   0.000000   0.000000   0.000000   0.000516   0.000045
    16  C    0.002542   0.000067  -0.000002  -0.000002   0.008015  -0.000517
    17  H   -0.000008   0.000000   0.000000   0.000000  -0.000111   0.000000
    18  H    0.000027   0.000000   0.000000   0.000000   0.000131   0.000000
    19  H    0.000027   0.000000   0.000000   0.000000   0.000131   0.000000
               7          8          9         10         11         12
     1  C   -0.395901   0.011166  -0.392009  -0.000723  -0.000718   0.244073
     2  H    0.007102   0.002552  -0.002772  -0.000006  -0.000006   0.001902
     3  H    0.003988   0.000024  -0.003931   0.000035  -0.000012  -0.001655
     4  H    0.003992   0.000024  -0.003932  -0.000012   0.000035  -0.001656
     5  C   -0.245513   0.020598  -0.888798   0.005891   0.005905   0.554404
     6  O   -0.257404   0.004006  -0.056732   0.001641   0.001638   0.036972
     7  N    8.143683   0.257422   0.374000  -0.049723  -0.049694  -0.256176
     8  H    0.257422   0.292541  -0.137794   0.002353   0.002353   0.075765
     9  C    0.374000  -0.137794  12.724200   0.340682   0.340655  -4.715668
    10  H   -0.049723   0.002353   0.340682   0.482067  -0.035154  -0.008890
    11  H   -0.049694   0.002353   0.340655  -0.035154   0.482061  -0.008900
    12  C   -0.256176   0.075765  -4.715668  -0.008890  -0.008900   8.814619
    13  O    0.005117   0.020596   0.030518   0.000703   0.000700   0.280731
    14  N   -0.000855   0.008035  -0.849659   0.011484   0.011478   0.351986
    15  H    0.001491  -0.000027  -0.012315   0.000029   0.000030   0.018751
    16  C   -0.005180   0.003158  -0.154444   0.004015   0.004017  -0.131916
    17  H    0.000037   0.000000  -0.004724   0.000001   0.000001   0.023245
    18  H   -0.000181   0.000000  -0.000651   0.000028  -0.000016  -0.020820
    19  H   -0.000182   0.000000  -0.000657  -0.000016   0.000028  -0.020825
              13         14         15         16         17         18
     1  C    0.004053   0.003603   0.000086   0.002542  -0.000008   0.000027
     2  H   -0.000119   0.000074   0.000000   0.000067   0.000000   0.000000
     3  H    0.000018  -0.000008   0.000000  -0.000002   0.000000   0.000000
     4  H    0.000018  -0.000008   0.000000  -0.000002   0.000000   0.000000
     5  C    0.013832   0.019747   0.000516   0.008015  -0.000111   0.000131
     6  O   -0.001052  -0.002335   0.000045  -0.000517   0.000000   0.000000
     7  N    0.005117  -0.000855   0.001491  -0.005180   0.000037  -0.000181
     8  H    0.020596   0.008035  -0.000027   0.003158   0.000000   0.000000
     9  C    0.030518  -0.849659  -0.012315  -0.154444  -0.004724  -0.000651
    10  H    0.000703   0.011484   0.000029   0.004015   0.000001   0.000028
    11  H    0.000700   0.011478   0.000030   0.004017   0.000001  -0.000016
    12  C    0.280731   0.351986   0.018751  -0.131916   0.023245  -0.020820
    13  O    8.512283  -0.258135   0.004529  -0.023491   0.001953   0.001015
    14  N   -0.258135   8.005874   0.282327   0.173319  -0.055933  -0.048946
    15  H    0.004529   0.282327   0.326787  -0.022875  -0.004697   0.002197
    16  C   -0.023491   0.173319  -0.022875   5.320587   0.381615   0.414293
    17  H    0.001953  -0.055933  -0.004697   0.381615   0.525592  -0.026668
    18  H    0.001015  -0.048946   0.002197   0.414293  -0.026668   0.486199
    19  H    0.001016  -0.048953   0.002199   0.414319  -0.026656  -0.032016
              19
     1  C    0.000027
     2  H    0.000000
     3  H    0.000000
     4  H    0.000000
     5  C    0.000131
     6  O    0.000000
     7  N   -0.000182
     8  H    0.000000
     9  C   -0.000657
    10  H   -0.000016
    11  H    0.000028
    12  C   -0.020825
    13  O    0.001016
    14  N   -0.048953
    15  H    0.002199
    16  C    0.414319
    17  H   -0.026656
    18  H   -0.032016
    19  H    0.486149
 Mulliken charges:
               1
     1  C   -0.779223
     2  H    0.189227
     3  H    0.232839
     4  H    0.232840
     5  C    0.675452
     6  O   -0.574845
     7  N   -0.536025
     8  H    0.437226
     9  C   -0.585969
    10  H    0.245595
    11  H    0.245598
    12  C    0.764057
    13  O   -0.594285
    14  N   -0.603092
    15  H    0.400928
    16  C   -0.387520
    17  H    0.186354
    18  H    0.225408
    19  H    0.225436
 Sum of Mulliken charges =   0.00000
 Mulliken charges with hydrogens summed into heavy atoms:
               1
     1  C   -0.124317
     5  C    0.675452
     6  O   -0.574845
     7  N   -0.098799
     9  C   -0.094776
    12  C    0.764057
    13  O   -0.594285
    14  N   -0.202164
    16  C    0.249678
 Electronic spatial extent (au):  <R**2>=           1845.4780
 Charge=              0.0000 electrons
 Dipole moment (field-independent basis, Debye):
    X=             -3.5770    Y=             -0.2557    Z=              0.0003  Tot=              3.5862
 Quadrupole moment (field-independent basis, Debye-Ang):
   XX=            -47.9159   YY=            -60.0143   ZZ=            -54.8524
   XY=             18.0222   XZ=              0.0003   YZ=              0.0001
 Traceless Quadrupole moment (field-independent basis, Debye-Ang):
   XX=              6.3449   YY=             -5.7534   ZZ=             -0.5915
   XY=             18.0222   XZ=              0.0003   YZ=              0.0001
 Octapole moment (field-independent basis, Debye-Ang**2):
  XXX=            -53.3989  YYY=             -3.6705  ZZZ=              0.0013  XYY=            -14.9154
  XXY=             19.7521  XXZ=              0.0002  XZZ=              1.8373  YZZ=             -0.3202
  YYZ=             -0.0004  XYZ=              0.0004
 Hexadecapole moment (field-independent basis, Debye-Ang**3):
 XXXX=          -1842.8259 YYYY=           -308.6488 ZZZZ=            -73.8343 XXXY=            109.0397
 XXXZ=              0.0030 YYYX=             50.3366 YYYZ=             -0.0017 ZZZX=             -0.0013
 ZZZY=              0.0007 XXYY=           -423.4388 XXZZ=           -347.3538 YYZZ=            -62.9951
 XXYZ=              0.0031 YYXZ=              0.0025 ZZXY=             -6.3309
 N-N= 4.470009685802D+02 E-N=-1.959074115296D+03  KE= 4.535329421988D+02
 No NMR shielding tensors so no spin-rotation constants.
 Leave Link  601 at Wed Sep  3 14:15:22 2025, MaxMem=  8053063680 cpu:         1.3
 (Enter /nexus/posix0/bmm/home/sucerqdl/sw/g09/l9999.exe)
 1\1\GINC-SLURM-ORBIT-CPU1\FOpt\RBMK\6-31+G\C5H10N2O2\SUCERQDL\03-Sep-2
 025\0\\#P bmk/6-31+g opt(modredun,calcfc)\\Gaussian input prepared by 
 ASE\\0,1\C,51.1704285768,52.4949594184,54.777968161\H,50.8340824532,53
 .4816299709,55.1153397401\H,50.5526388741,52.1718235168,53.9312913843\
 H,51.0318938145,51.7686816907,55.5880754195\C,52.6293305069,52.4809756
 669,54.3525552778\O,53.1866362235,51.4434988534,53.9390804879\N,53.302
 6286755,53.6572124141,54.4437730821\H,52.8763817377,54.5137491354,54.7
 75297363\C,54.6965542025,53.7509070533,54.063249265\H,54.8265653893,53
 .4598849675,53.009334681\H,55.3053609228,53.0575980707,54.6640927544\C
 ,55.1623944897,55.192489824,54.2789386593\O,54.3909281952,56.068695830
 6,54.7152081768\N,56.4553507447,55.4504531099,53.9675470748\H,57.04293
 84258,54.708793423,53.6171804032\C,57.0207567782,56.7884707025,54.1292
 77066\H,58.0699566676,56.7683278501,53.8213908337\H,56.4727395253,57.5
 127122319,53.5146458765\H,56.9524337967,57.10913627,55.1757542936\\Ver
 sion=ES64L-G09RevD.01\State=1-A\HF=-456.1608952\RMSD=8.543e-09\RMSF=2.
 021e-06\Dipole=1.0919408,0.8878647,-0.1001607\Quadrupole=13.0823369,-1
 2.6144869,-0.4678501,3.1290731,-3.1511858,-3.8651767\PG=C01 [X(C5H10N2
 O2)]\\@


 THE NUMBERS ARE MEANINGLESS, BUT THE TRENDS ARE IMPORTANT.
     -- LARRY BURGGRAF
 Job cpu time:       0 days  0 hours 15 minutes 13.1 seconds.
 File lengths (MBytes):  RWF=    132 Int=      0 D2E=      0 Chk=      3 Scr=      2
 Normal termination of Gaussian 09 at Wed Sep  3 14:15:22 2025.
