 Entering Gaussian System, Link 0=g09
 Input=G-stretched03.com
 Output=G-stretched03.log
 Initial command:
 /nexus/posix0/bmm/home/sucerqdl/sw/g09/l1.exe "/nexus/posix0/bmm/home/sucerqdl/sw/g09/g09_scratch/Gau-2872349.inp" -scrdir="/nexus/posix0/bmm/home/sucerqdl/sw/g09/g09_scratch/"
 Entering Link 1 = /nexus/posix0/bmm/home/sucerqdl/sw/g09/l1.exe PID=   2872351.
  
 Copyright (c) 1988,1990,1992,1993,1995,1998,2003,2009,2013,
            Gaussian, Inc.  All Rights Reserved.
  
 This is part of the Gaussian(R) 09 program.  It is based on
 the Gaussian(R) 03 system (copyright 2003, Gaussian, Inc.),
 the Gaussian(R) 98 system (copyright 1998, Gaussian, Inc.),
 the Gaussian(R) 94 system (copyright 1995, Gaussian, Inc.),
 the Gaussian 92(TM) system (copyright 1992, Gaussian, Inc.),
 the Gaussian 90(TM) system (copyright 1990, Gaussian, Inc.),
 the Gaussian 88(TM) system (copyright 1988, Gaussian, Inc.),
 the Gaussian 86(TM) system (copyright 1986, Carnegie Mellon
 University), and the Gaussian 82(TM) system (copyright 1983,
 Carnegie Mellon University). Gaussian is a federally registered
 trademark of Gaussian, Inc.
  
 This software contains proprietary and confidential information,
 including trade secrets, belonging to Gaussian, Inc.
  
 This software is provided under written license and may be
 used, copied, transmitted, or stored only in accord with that
 written license.
  
 The following legend is applicable only to US Government
 contracts under FAR:
  
                    RESTRICTED RIGHTS LEGEND
  
 Use, reproduction and disclosure by the US Government is
 subject to restrictions as set forth in subparagraphs (a)
 and (c) of the Commercial Computer Software - Restricted
 Rights clause in FAR 52.227-19.
  
 Gaussian, Inc.
 340 Quinnipiac St., Bldg. 40, Wallingford CT 06492
  
  
 ---------------------------------------------------------------
 Warning -- This program may not be used in any manner that
 competes with the business of Gaussian, Inc. or will provide
 assistance to any competitor of Gaussian, Inc.  The licensee
 of this program is prohibited from giving any competitor of
 Gaussian, Inc. access to this program.  By using this program,
 the user acknowledges that Gaussian, Inc. is engaged in the
 business of creating and licensing software in the field of
 computational chemistry and represents and warrants to the
 licensee that it is not a competitor of Gaussian, Inc. and that
 it will not use this program in any manner prohibited above.
 ---------------------------------------------------------------
  

 Cite this work as:
 Gaussian 09, Revision D.01,
 M. J. Frisch, G. W. Trucks, H. B. Schlegel, G. E. Scuseria, 
 M. A. Robb, J. R. Cheeseman, G. Scalmani, V. Barone, B. Mennucci, 
 G. A. Petersson, H. Nakatsuji, M. Caricato, X. Li, H. P. Hratchian, 
 A. F. Izmaylov, J. Bloino, G. Zheng, J. L. Sonnenberg, M. Hada, 
 M. Ehara, K. Toyota, R. Fukuda, J. Hasegawa, M. Ishida, T. Nakajima, 
 Y. Honda, O. Kitao, H. Nakai, T. Vreven, J. A. Montgomery, Jr., 
 J. E. Peralta, F. Ogliaro, M. Bearpark, J. J. Heyd, E. Brothers, 
 K. N. Kudin, V. N. Staroverov, T. Keith, R. Kobayashi, J. Normand, 
 K. Raghavachari, A. Rendell, J. C. Burant, S. S. Iyengar, J. Tomasi, 
 M. Cossi, N. Rega, J. M. Millam, M. Klene, J. E. Knox, J. B. Cross, 
 V. Bakken, C. Adamo, J. Jaramillo, R. Gomperts, R. E. Stratmann, 
 O. Yazyev, A. J. Austin, R. Cammi, C. Pomelli, J. W. Ochterski, 
 R. L. Martin, K. Morokuma, V. G. Zakrzewski, G. A. Voth, 
 P. Salvador, J. J. Dannenberg, S. Dapprich, A. D. Daniels, 
 O. Farkas, J. B. Foresman, J. V. Ortiz, J. Cioslowski, 
 and D. J. Fox, Gaussian, Inc., Wallingford CT, 2013.
 
 ******************************************
 Gaussian 09:  ES64L-G09RevD.01 24-Apr-2013
                 3-Sep-2025 
 ******************************************
 %mem=60GB
 %NProcShared=16
 Will use up to   16 processors via shared memory.
 %chk=G-stretched03
 ----------------------------------
 #P bmk/6-31+g opt(modredun,calcfc)
 ----------------------------------
 1/10=4,14=-1,18=120,19=15,26=3,38=1/1,3;
 2/9=110,12=2,17=6,18=5,40=1/2;
 3/5=1,6=6,7=10,11=2,16=1,25=1,30=1,71=2,74=-34,140=1/1,2,3;
 4//1;
 5/5=2,38=5/2;
 8/6=4,10=90,11=11/1;
 11/6=1,8=1,9=11,15=111,16=1/1,2,10;
 10/6=1,13=1/2;
 6/7=2,8=2,9=2,10=2,28=1/1;
 7/10=1,18=20,25=1/1,2,3,16;
 1/10=4,14=-1,18=20,19=15,26=3/3(2);
 2/9=110/2;
 99//99;
 2/9=110/2;
 3/5=1,6=6,7=10,11=2,16=1,25=1,30=1,71=1,74=-34/1,2,3;
 4/5=5,16=3,69=1/1;
 5/5=2,38=5/2;
 7//1,2,3,16;
 1/14=-1,18=20,19=15,26=3/3(-5);
 2/9=110/2;
 6/7=2,8=2,9=2,10=2,19=2,28=1/1;
 99/9=1/99;
 Leave Link    1 at Wed Sep  3 14:19:15 2025, MaxMem=  8053063680 cpu:         1.3
 (Enter /nexus/posix0/bmm/home/sucerqdl/sw/g09/l101.exe)
 ------------------------------
 Gaussian input prepared by ASE
 ------------------------------
 Symbolic Z-matrix:
 Charge =  0 Multiplicity = 1
 C                     0.        0.        0. 
 H                     0.09753   1.09198  -0.00011 
 H                    -0.56357  -0.32585  -0.88998 
 H                    -0.56344  -0.32567   0.89012 
 C                     1.40985  -0.73478  -0.00002 
 O                     1.42108  -1.98288  -0.00002 
 N                     2.63736  -0.0452   -0.00004 
 H                     2.69778   0.96524  -0.00003 
 C                     3.94079  -0.79514  -0.00006 
 H                     3.96775  -1.4532   -0.88182 
 H                     3.96771  -1.4533    0.88162 
 C                     5.24299   0.10788  -0.00001 
 O                     5.15354   1.34681  -0.00002 
 N                     6.46959  -0.57805   0.00002 
 H                     6.41609  -1.5881    0.00007 
 C                     7.8857    0.        0. 
 H                     8.43789  -0.32077  -0.89886 
 H                     7.78597   1.08992  -0.00037 
 H                     8.43772  -0.32018   0.89918 
 
 The following ModRedundant input section has been read:
 B       1      16 F                                                           
 
 NAtoms=     19 NQM=       19 NQMF=       0 NMMI=      0 NMMIF=      0
                NMic=       0 NMicF=      0.
                    Isotopes and Nuclear Properties:
 (Nuclear quadrupole moments (NQMom) in fm**2, nuclear magnetic moments (NMagM)
  in nuclear magnetons)

  Atom         1           2           3           4           5           6           7           8           9          10
 IAtWgt=          12           1           1           1          12          16          14           1          12           1
 AtmWgt=  12.0000000   1.0078250   1.0078250   1.0078250  12.0000000  15.9949146  14.0030740   1.0078250  12.0000000   1.0078250
 NucSpn=           0           1           1           1           0           0           2           1           0           1
 AtZEff=   0.0000000   0.0000000   0.0000000   0.0000000   0.0000000   0.0000000   0.0000000   0.0000000   0.0000000   0.0000000
 NQMom=    0.0000000   0.0000000   0.0000000   0.0000000   0.0000000   0.0000000   2.0440000   0.0000000   0.0000000   0.0000000
 NMagM=    0.0000000   2.7928460   2.7928460   2.7928460   0.0000000   0.0000000   0.4037610   2.7928460   0.0000000   2.7928460
 AtZNuc=   6.0000000   1.0000000   1.0000000   1.0000000   6.0000000   8.0000000   7.0000000   1.0000000   6.0000000   1.0000000

  Atom        11          12          13          14          15          16          17          18          19
 IAtWgt=           1          12          16          14           1          12           1           1           1
 AtmWgt=   1.0078250  12.0000000  15.9949146  14.0030740   1.0078250  12.0000000   1.0078250   1.0078250   1.0078250
 NucSpn=           1           0           0           2           1           0           1           1           1
 AtZEff=   0.0000000   0.0000000   0.0000000   0.0000000   0.0000000   0.0000000   0.0000000   0.0000000   0.0000000
 NQMom=    0.0000000   0.0000000   0.0000000   2.0440000   0.0000000   0.0000000   0.0000000   0.0000000   0.0000000
 NMagM=    2.7928460   0.0000000   0.0000000   0.4037610   2.7928460   0.0000000   2.7928460   2.7928460   2.7928460
 AtZNuc=   1.0000000   6.0000000   8.0000000   7.0000000   1.0000000   6.0000000   1.0000000   1.0000000   1.0000000
 Leave Link  101 at Wed Sep  3 14:19:16 2025, MaxMem=  8053063680 cpu:        12.0
 (Enter /nexus/posix0/bmm/home/sucerqdl/sw/g09/l103.exe)

 GradGradGradGradGradGradGradGradGradGradGradGradGradGradGradGradGradGrad
 Berny optimization.
 Initialization pass.
                           ----------------------------
                           !    Initial Parameters    !
                           ! (Angstroms and Degrees)  !
 --------------------------                            --------------------------
 ! Name  Definition              Value          Derivative Info.                !
 --------------------------------------------------------------------------------
 ! R1    R(1,2)                  1.0963         calculate D2E/DX2 analytically  !
 ! R2    R(1,3)                  1.1027         calculate D2E/DX2 analytically  !
 ! R3    R(1,4)                  1.1027         calculate D2E/DX2 analytically  !
 ! R4    R(1,5)                  1.5898         calculate D2E/DX2 analytically  !
 ! R5    R(1,16)                 7.8857         frozen, calculate D2E/DX2 analyt!
 ! R6    R(5,6)                  1.2481         calculate D2E/DX2 analytically  !
 ! R7    R(5,7)                  1.4079         calculate D2E/DX2 analytically  !
 ! R8    R(7,8)                  1.0122         calculate D2E/DX2 analytically  !
 ! R9    R(7,9)                  1.5038         calculate D2E/DX2 analytically  !
 ! R10   R(9,10)                 1.1006         calculate D2E/DX2 analytically  !
 ! R11   R(9,11)                 1.1006         calculate D2E/DX2 analytically  !
 ! R12   R(9,12)                 1.5847         calculate D2E/DX2 analytically  !
 ! R13   R(12,13)                1.2422         calculate D2E/DX2 analytically  !
 ! R14   R(12,14)                1.4054         calculate D2E/DX2 analytically  !
 ! R15   R(14,15)                1.0115         calculate D2E/DX2 analytically  !
 ! R16   R(14,16)                1.5295         calculate D2E/DX2 analytically  !
 ! R17   R(16,17)                1.1026         calculate D2E/DX2 analytically  !
 ! R18   R(16,18)                1.0945         calculate D2E/DX2 analytically  !
 ! R19   R(16,19)                1.1026         calculate D2E/DX2 analytically  !
 ! A1    A(2,1,3)              109.8602         calculate D2E/DX2 analytically  !
 ! A2    A(2,1,4)              109.8596         calculate D2E/DX2 analytically  !
 ! A3    A(2,1,5)              112.4238         calculate D2E/DX2 analytically  !
 ! A4    A(3,1,4)              107.6445         calculate D2E/DX2 analytically  !
 ! A5    A(3,1,5)              108.4603         calculate D2E/DX2 analytically  !
 ! A6    A(4,1,5)              108.4603         calculate D2E/DX2 analytically  !
 ! A7    A(1,5,6)              118.043          calculate D2E/DX2 analytically  !
 ! A8    A(1,5,7)              123.1466         calculate D2E/DX2 analytically  !
 ! A9    A(6,5,7)              118.8104         calculate D2E/DX2 analytically  !
 ! A10   A(5,7,8)              122.7474         calculate D2E/DX2 analytically  !
 ! A11   A(5,7,9)              120.7599         calculate D2E/DX2 analytically  !
 ! A12   A(8,7,9)              116.4927         calculate D2E/DX2 analytically  !
 ! A13   A(7,9,10)             108.6285         calculate D2E/DX2 analytically  !
 ! A14   A(7,9,11)             108.6277         calculate D2E/DX2 analytically  !
 ! A15   A(7,9,12)             115.3463         calculate D2E/DX2 analytically  !
 ! A16   A(10,9,11)            106.4789         calculate D2E/DX2 analytically  !
 ! A17   A(10,9,12)            108.7006         calculate D2E/DX2 analytically  !
 ! A18   A(11,9,12)            108.7026         calculate D2E/DX2 analytically  !
 ! A19   A(9,12,13)            120.6098         calculate D2E/DX2 analytically  !
 ! A20   A(9,12,14)            116.0459         calculate D2E/DX2 analytically  !
 ! A21   A(13,12,14)           123.3443         calculate D2E/DX2 analytically  !
 ! A22   A(12,14,15)           116.1827         calculate D2E/DX2 analytically  !
 ! A23   A(12,14,16)           128.5802         calculate D2E/DX2 analytically  !
 ! A24   A(15,14,16)           115.2371         calculate D2E/DX2 analytically  !
 ! A25   A(14,16,17)           110.7158         calculate D2E/DX2 analytically  !
 ! A26   A(14,16,18)           106.9773         calculate D2E/DX2 analytically  !
 ! A27   A(14,16,19)           110.7176         calculate D2E/DX2 analytically  !
 ! A28   A(17,16,18)           109.5765         calculate D2E/DX2 analytically  !
 ! A29   A(17,16,19)           109.2437         calculate D2E/DX2 analytically  !
 ! A30   A(18,16,19)           109.5768         calculate D2E/DX2 analytically  !
 ! D1    D(2,1,5,6)           -179.9943         calculate D2E/DX2 analytically  !
 ! D2    D(2,1,5,7)              0.0064         calculate D2E/DX2 analytically  !
 ! D3    D(3,1,5,6)            -58.3121         calculate D2E/DX2 analytically  !
 ! D4    D(3,1,5,7)            121.6886         calculate D2E/DX2 analytically  !
 ! D5    D(4,1,5,6)             58.3243         calculate D2E/DX2 analytically  !
 ! D6    D(4,1,5,7)           -121.675          calculate D2E/DX2 analytically  !
 ! D7    D(1,5,7,8)              0.0004         calculate D2E/DX2 analytically  !
 ! D8    D(1,5,7,9)            179.9999         calculate D2E/DX2 analytically  !
 ! D9    D(6,5,7,8)           -179.9989         calculate D2E/DX2 analytically  !
 ! D10   D(6,5,7,9)              0.0006         calculate D2E/DX2 analytically  !
 ! D11   D(5,7,9,10)            57.7224         calculate D2E/DX2 analytically  !
 ! D12   D(5,7,9,11)           -57.7147         calculate D2E/DX2 analytically  !
 ! D13   D(5,7,9,12)          -179.9972         calculate D2E/DX2 analytically  !
 ! D14   D(8,7,9,10)          -122.2781         calculate D2E/DX2 analytically  !
 ! D15   D(8,7,9,11)           122.2848         calculate D2E/DX2 analytically  !
 ! D16   D(8,7,9,12)             0.0023         calculate D2E/DX2 analytically  !
 ! D17   D(7,9,12,13)           -0.0035         calculate D2E/DX2 analytically  !
 ! D18   D(7,9,12,14)          179.9979         calculate D2E/DX2 analytically  !
 ! D19   D(10,9,12,13)         122.2384         calculate D2E/DX2 analytically  !
 ! D20   D(10,9,12,14)         -57.7602         calculate D2E/DX2 analytically  !
 ! D21   D(11,9,12,13)        -122.2459         calculate D2E/DX2 analytically  !
 ! D22   D(11,9,12,14)          57.7555         calculate D2E/DX2 analytically  !
 ! D23   D(9,12,14,15)          -0.0045         calculate D2E/DX2 analytically  !
 ! D24   D(9,12,14,16)         179.9965         calculate D2E/DX2 analytically  !
 ! D25   D(13,12,14,15)        179.997          calculate D2E/DX2 analytically  !
 ! D26   D(13,12,14,16)         -0.002          calculate D2E/DX2 analytically  !
 ! D27   D(12,14,16,17)       -119.3588         calculate D2E/DX2 analytically  !
 ! D28   D(12,14,16,18)         -0.0178         calculate D2E/DX2 analytically  !
 ! D29   D(12,14,16,19)        119.3245         calculate D2E/DX2 analytically  !
 ! D30   D(15,14,16,17)         60.6422         calculate D2E/DX2 analytically  !
 ! D31   D(15,14,16,18)        179.9832         calculate D2E/DX2 analytically  !
 ! D32   D(15,14,16,19)        -60.6744         calculate D2E/DX2 analytically  !
 --------------------------------------------------------------------------------
 Trust Radius=3.00D-01 FncErr=1.00D-07 GrdErr=1.00D-06
 Number of steps in this run=     91 maximum allowed number of steps=    114.
 GradGradGradGradGradGradGradGradGradGradGradGradGradGradGradGradGradGrad

 Leave Link  103 at Wed Sep  3 14:19:16 2025, MaxMem=  8053063680 cpu:         0.3
 (Enter /nexus/posix0/bmm/home/sucerqdl/sw/g09/l202.exe)
                          Input orientation:                          
 ---------------------------------------------------------------------
 Center     Atomic      Atomic             Coordinates (Angstroms)
 Number     Number       Type             X           Y           Z
 ---------------------------------------------------------------------
      1          6           0        0.000000    0.000000    0.000000
      2          1           0        0.097528    1.091977   -0.000111
      3          1           0       -0.563568   -0.325849   -0.889978
      4          1           0       -0.563441   -0.325667    0.890122
      5          6           0        1.409849   -0.734783   -0.000025
      6          8           0        1.421079   -1.982876   -0.000017
      7          7           0        2.637364   -0.045203   -0.000041
      8          1           0        2.697776    0.965237   -0.000032
      9          6           0        3.940792   -0.795136   -0.000062
     10          1           0        3.967754   -1.453201   -0.881821
     11          1           0        3.967705   -1.453301    0.881625
     12          6           0        5.242992    0.107881   -0.000008
     13          8           0        5.153538    1.346812   -0.000019
     14          7           0        6.469593   -0.578051    0.000020
     15          1           0        6.416095   -1.588103    0.000075
     16          6           0        7.885697    0.000000    0.000000
     17          1           0        8.437894   -0.320768   -0.898856
     18          1           0        7.785971    1.089921   -0.000367
     19          1           0        8.437718   -0.320184    0.899175
 ---------------------------------------------------------------------
                    Distance matrix (angstroms):
                    1          2          3          4          5
     1  C    0.000000
     2  H    1.096323   0.000000
     3  H    1.102655   1.799761   0.000000
     4  H    1.102652   1.799752   1.780100   0.000000
     5  C    1.589836   2.249275   2.203093   2.203091   0.000000
     6  O    2.439521   3.347612   2.734336   2.734411   1.248144
     7  N    2.637752   2.782795   3.334174   3.334097   1.407947
     8  H    2.865253   2.603335   3.618738   3.618610   2.132797
     9  C    4.020209   4.281574   4.615348   4.615294   2.531663
    10  H    4.316535   4.715294   4.669461   4.994281   2.799387
    11  H    4.316484   4.715313   4.994213   4.669359   2.799322
    12  C    5.244102   5.238726   5.890357   5.890243   3.924674
    13  O    5.326618   5.062429   6.022883   6.022739   4.283485
    14  N    6.495366   6.587276   7.093733   7.093627   5.062171
    15  H    6.609716   6.863463   7.148508   7.148415   5.078450
    16  C    7.885697   7.864349   8.502253   8.502135   6.517400
    17  H    8.491696   8.506780   9.001468   9.177391   7.097375
    18  H    7.861887   7.688443   8.515316   8.515253   6.632079
    19  H    8.491533   8.506568   9.177377   9.001165   7.097281
                    6          7          8          9         10
     6  O    0.000000
     7  N    2.287778   0.000000
     8  H    3.212682   1.012245   0.000000
     9  C    2.785621   1.503770   2.154995   0.000000
    10  H    2.746578   2.128363   2.870407   1.100580   0.000000
    11  H    2.746461   2.128352   2.870430   1.100580   1.763446
    12  C    4.356408   2.610121   2.685738   1.584665   2.200183
    13  O    5.001808   2.875559   2.485230   2.461441   3.166028
    14  N    5.240327   3.869096   4.075334   2.538101   2.793336
    15  H    5.010592   4.081586   4.510592   2.599215   2.605823
    16  C    6.761885   5.248527   5.276951   4.024241   4.270793
    17  H    7.266789   5.876219   5.950685   4.610508   4.611383
    18  H    7.067810   5.272254   5.089723   4.282387   4.671532
    19  H    7.266796   5.876080   5.950448   4.610483   4.943304
                   11         12         13         14         15
    11  H    0.000000
    12  C    2.200210   0.000000
    13  O    3.166091   1.242156   0.000000
    14  N    2.793337   1.405366   2.331759   0.000000
    15  H    2.605746   2.062167   3.194961   1.011467   0.000000
    16  C    4.270832   2.644906   3.046078   1.529540   2.163747
    17  H    4.943211   3.346501   3.791534   2.179079   2.549880
    18  H    4.671728   2.726012   2.644938   2.124849   3.008052
    19  H    4.611429   3.346348   3.791209   2.179104   2.550090
                   16         17         18         19
    16  C    0.000000
    17  H    1.102613   0.000000
    18  H    1.094474   1.795085   0.000000
    19  H    1.102616   1.798031   1.795090   0.000000
 Stoichiometry    C5H10N2O2
 Framework group  C1[X(C5H10N2O2)]
 Deg. of freedom    51
 Full point group                 C1      NOp   1
 Largest Abelian subgroup         C1      NOp   1
 Largest concise Abelian subgroup C1      NOp   1
                         Standard orientation:                         
 ---------------------------------------------------------------------
 Center     Atomic      Atomic             Coordinates (Angstroms)
 Number     Number       Type             X           Y           Z
 ---------------------------------------------------------------------
      1          6           0       -3.768957    0.727407    0.000017
      2          1           0       -3.548033    1.801240   -0.000094
      3          1           0       -4.365888    0.467677   -0.889961
      4          1           0       -4.365741    0.467842    0.890139
      5          6           0       -2.451688   -0.162752   -0.000008
      6          8           0       -2.582290   -1.404044    0.000000
      7          7           0       -1.153794    0.382944   -0.000025
      8          1           0       -0.979007    1.379984   -0.000015
      9          6           0        0.056022   -0.510180   -0.000045
     10          1           0        0.008066   -1.167048   -0.881805
     11          1           0        0.008007   -1.167143    0.881641
     12          6           0        1.452360    0.239090    0.000009
     13          8           0        1.504203    1.480164   -0.000002
     14          7           0        2.593115   -0.581721    0.000037
     15          1           0        2.425241   -1.579160    0.000092
     16          6           0        4.065710   -0.168252    0.000017
     17          1           0        4.577902   -0.549663   -0.898839
     18          1           0        4.090423    0.925943   -0.000350
     19          1           0        4.577793   -0.549063    0.899192
 ---------------------------------------------------------------------
 Rotational constants (GHZ):      5.0057559      0.5986631      0.5401928
 Leave Link  202 at Wed Sep  3 14:19:16 2025, MaxMem=  8053063680 cpu:         0.1
 (Enter /nexus/posix0/bmm/home/sucerqdl/sw/g09/l301.exe)
 Standard basis: 6-31+G (6D, 7F)
 Ernie: Thresh=  0.10000D-02 Tol=  0.10000D-05 Strict=F.
 There are   137 symmetry adapted cartesian basis functions of A   symmetry.
 There are   137 symmetry adapted basis functions of A   symmetry.
   137 basis functions,   274 primitive gaussians,   137 cartesian basis functions
    35 alpha electrons       35 beta electrons
       nuclear repulsion energy       431.5176569047 Hartrees.
 IExCor= 3226 DFT=T Ex+Corr=BMK ExCW=0 ScaHFX=  0.420000
 ScaDFX=  1.000000  1.000000  1.000000  1.000000 ScalE2=  1.000000  1.000000
 IRadAn=      0 IRanWt=     -1 IRanGd=            0 ICorTp=0 IEmpDi=  4
 NAtoms=   19 NActive=   19 NUniq=   19 SFac= 1.00D+00 NAtFMM=   60 NAOKFM=F Big=F
 Integral buffers will be    131072 words long.
 Raffenetti 2 integral format.
 Two-electron integral symmetry is turned on.
 Leave Link  301 at Wed Sep  3 14:19:16 2025, MaxMem=  8053063680 cpu:         1.2
 (Enter /nexus/posix0/bmm/home/sucerqdl/sw/g09/l302.exe)
 NPDir=0 NMtPBC=     1 NCelOv=     1 NCel=       1 NClECP=     1 NCelD=      1
         NCelK=      1 NCelE2=     1 NClLst=     1 CellRange=     0.0.
 One-electron integrals computed using PRISM.
 NBasis=   137 RedAO= T EigKep=  2.55D-05  NBF=   137
 NBsUse=   137 1.00D-06 EigRej= -1.00D+00 NBFU=   137
 Precomputing XC quadrature grid using
 IXCGrd= 4 IRadAn=           0 IRanWt=          -1 IRanGd=           0 AccXCQ= 0.00D+00.
 Generated NRdTot=       0 NPtTot=           0 NUsed=           0 NTot=          32
 NSgBfM=   137   137   137   137   137 MxSgAt=    19 MxSgA2=    19.
 Leave Link  302 at Wed Sep  3 14:19:16 2025, MaxMem=  8053063680 cpu:         2.8
 (Enter /nexus/posix0/bmm/home/sucerqdl/sw/g09/l303.exe)
 DipDrv:  MaxL=1.
 Leave Link  303 at Wed Sep  3 14:19:16 2025, MaxMem=  8053063680 cpu:         0.7
 (Enter /nexus/posix0/bmm/home/sucerqdl/sw/g09/l401.exe)
 ExpMin= 4.38D-02 ExpMax= 5.48D+03 ExpMxC= 8.25D+02 IAcc=2 IRadAn=         4 AccDes= 0.00D+00
 Harris functional with IExCor= 1009 and IRadAn=       4 diagonalized for initial guess.
 HarFok:  IExCor= 1009 AccDes= 0.00D+00 IRadAn=         4 IDoV= 1 UseB2=F ITyADJ=14
 ICtDFT=  3500011 ScaDFX=  1.000000  1.000000  1.000000  1.000000
 FoFCou: FMM=F IPFlag=           0 FMFlag=      100000 FMFlg1=           0
         NFxFlg=           0 DoJE=T BraDBF=F KetDBF=T FulRan=T
         wScrn=  0.000000 ICntrl=     500 IOpCl=  0 I1Cent=   200000004 NGrid=           0
         NMat0=    1 NMatS0=      1 NMatT0=    0 NMatD0=    1 NMtDS0=    0 NMtDT0=    0
 Petite list used in FoFCou.
 Harris En= -455.989944235898    
 JPrj=0 DoOrth=F DoCkMO=F.
 Leave Link  401 at Wed Sep  3 14:19:17 2025, MaxMem=  8053063680 cpu:         4.1
 (Enter /nexus/posix0/bmm/home/sucerqdl/sw/g09/l502.exe)
 Closed shell SCF:
 Using DIIS extrapolation, IDIIS=  1040.
 Integral symmetry usage will be decided dynamically.
 Keep R1 ints in memory in canonical form, NReq=46076400.
 IVT=       78102 IEndB=       78102 NGot=  8053063680 MDV=  8008301248
 LenX=  8008301248 LenY=  8008282038
 Requested convergence on RMS density matrix=1.00D-08 within 128 cycles.
 Requested convergence on MAX density matrix=1.00D-06.
 Requested convergence on             energy=1.00D-06.
 No special actions if energy rises.
 FoFCou: FMM=F IPFlag=           0 FMFlag=           0 FMFlg1=           0
         NFxFlg=           0 DoJE=F BraDBF=F KetDBF=F FulRan=T
         wScrn=  0.000000 ICntrl=     600 IOpCl=  0 I1Cent=           0 NGrid=           0
         NMat0=    1 NMatS0=   9453 NMatT0=    0 NMatD0=    1 NMtDS0=    0 NMtDT0=    0
 Symmetry not used in FoFCou.

 Cycle   1  Pass 1  IDiag  1:
 E= -455.905056347109    
 DIIS: error= 3.59D-02 at cycle   1 NSaved=   1.
 NSaved= 1 IEnMin= 1 EnMin= -455.905056347109     IErMin= 1 ErrMin= 3.59D-02
 ErrMax= 3.59D-02  0.00D+00 EMaxC= 1.00D-01 BMatC= 2.64D-01 BMatP= 2.64D-01
 IDIUse=3 WtCom= 6.41D-01 WtEn= 3.59D-01
 Coeff-Com:  0.100D+01
 Coeff-En:   0.100D+01
 Coeff:      0.100D+01
 Gap=     0.328 Goal=   None    Shift=    0.000
 GapD=    0.328 DampG=1.000 DampE=0.500 DampFc=0.5000 IDamp=-1.
 Damping current iteration by 5.00D-01
 RMSDP=3.17D-02 MaxDP=1.77D+00              OVMax= 2.81D-01

 Cycle   2  Pass 1  IDiag  1:
 E= -455.969576712131     Delta-E=       -0.064520365022 Rises=F Damp=T
 DIIS: error= 1.79D-02 at cycle   2 NSaved=   2.
 NSaved= 2 IEnMin= 2 EnMin= -455.969576712131     IErMin= 2 ErrMin= 1.79D-02
 ErrMax= 1.79D-02  0.00D+00 EMaxC= 1.00D-01 BMatC= 4.07D-02 BMatP= 2.64D-01
 IDIUse=3 WtCom= 8.21D-01 WtEn= 1.79D-01
 Coeff-Com:  0.228D+00 0.772D+00
 Coeff-En:   0.341D+00 0.659D+00
 Coeff:      0.249D+00 0.751D+00
 Gap=     0.326 Goal=   None    Shift=    0.000
 RMSDP=1.47D-02 MaxDP=9.45D-01 DE=-6.45D-02 OVMax= 1.39D-01

 Cycle   3  Pass 1  IDiag  1:
 E= -456.122498089089     Delta-E=       -0.152921376958 Rises=F Damp=F
 DIIS: error= 1.39D-02 at cycle   3 NSaved=   3.
 NSaved= 3 IEnMin= 3 EnMin= -456.122498089089     IErMin= 3 ErrMin= 1.39D-02
 ErrMax= 1.39D-02  0.00D+00 EMaxC= 1.00D-01 BMatC= 1.83D-02 BMatP= 4.07D-02
 IDIUse=3 WtCom= 8.61D-01 WtEn= 1.39D-01
 Coeff-Com:  0.805D-01 0.401D+00 0.518D+00
 Coeff-En:   0.000D+00 0.000D+00 0.100D+01
 Coeff:      0.694D-01 0.346D+00 0.585D+00
 Gap=     0.331 Goal=   None    Shift=    0.000
 RMSDP=2.04D-03 MaxDP=7.09D-02 DE=-1.53D-01 OVMax= 4.36D-02

 Cycle   4  Pass 1  IDiag  1:
 E= -456.137501452101     Delta-E=       -0.015003363012 Rises=F Damp=F
 DIIS: error= 5.01D-03 at cycle   4 NSaved=   4.
 NSaved= 4 IEnMin= 4 EnMin= -456.137501452101     IErMin= 4 ErrMin= 5.01D-03
 ErrMax= 5.01D-03  0.00D+00 EMaxC= 1.00D-01 BMatC= 2.47D-03 BMatP= 1.83D-02
 IDIUse=3 WtCom= 9.50D-01 WtEn= 5.01D-02
 Coeff-Com:  0.169D-01 0.292D-01 0.267D+00 0.686D+00
 Coeff-En:   0.000D+00 0.000D+00 0.672D-01 0.933D+00
 Coeff:      0.161D-01 0.277D-01 0.257D+00 0.699D+00
 Gap=     0.328 Goal=   None    Shift=    0.000
 RMSDP=7.87D-04 MaxDP=3.58D-02 DE=-1.50D-02 OVMax= 1.22D-02

 Cycle   5  Pass 1  IDiag  1:
 E= -456.139406719558     Delta-E=       -0.001905267457 Rises=F Damp=F
 DIIS: error= 1.34D-03 at cycle   5 NSaved=   5.
 NSaved= 5 IEnMin= 5 EnMin= -456.139406719558     IErMin= 5 ErrMin= 1.34D-03
 ErrMax= 1.34D-03  0.00D+00 EMaxC= 1.00D-01 BMatC= 1.59D-04 BMatP= 2.47D-03
 IDIUse=3 WtCom= 9.87D-01 WtEn= 1.34D-02
 Coeff-Com:  0.407D-02-0.169D-01 0.946D-01 0.361D+00 0.557D+00
 Coeff-En:   0.000D+00 0.000D+00 0.000D+00 0.000D+00 0.100D+01
 Coeff:      0.402D-02-0.166D-01 0.933D-01 0.356D+00 0.563D+00
 Gap=     0.325 Goal=   None    Shift=    0.000
 RMSDP=2.73D-04 MaxDP=1.76D-02 DE=-1.91D-03 OVMax= 3.56D-03

 Cycle   6  Pass 1  IDiag  1:
 E= -456.139551885684     Delta-E=       -0.000145166127 Rises=F Damp=F
 DIIS: error= 2.22D-04 at cycle   6 NSaved=   6.
 NSaved= 6 IEnMin= 6 EnMin= -456.139551885684     IErMin= 6 ErrMin= 2.22D-04
 ErrMax= 2.22D-04  0.00D+00 EMaxC= 1.00D-01 BMatC= 6.71D-06 BMatP= 1.59D-04
 IDIUse=3 WtCom= 9.98D-01 WtEn= 2.22D-03
 Coeff-Com:  0.175D-02-0.844D-02 0.196D-01 0.745D-01 0.192D+00 0.721D+00
 Coeff-En:   0.000D+00 0.000D+00 0.000D+00 0.000D+00 0.000D+00 0.100D+01
 Coeff:      0.175D-02-0.842D-02 0.195D-01 0.743D-01 0.191D+00 0.722D+00
 Gap=     0.325 Goal=   None    Shift=    0.000
 RMSDP=9.56D-05 MaxDP=5.53D-03 DE=-1.45D-04 OVMax= 4.57D-04

 Cycle   7  Pass 1  IDiag  1:
 E= -456.139557462491     Delta-E=       -0.000005576807 Rises=F Damp=F
 DIIS: error= 6.16D-05 at cycle   7 NSaved=   7.
 NSaved= 7 IEnMin= 7 EnMin= -456.139557462491     IErMin= 7 ErrMin= 6.16D-05
 ErrMax= 6.16D-05  0.00D+00 EMaxC= 1.00D-01 BMatC= 8.06D-07 BMatP= 6.71D-06
 IDIUse=1 WtCom= 1.00D+00 WtEn= 0.00D+00
 Coeff-Com:  0.501D-03-0.139D-02-0.566D-02-0.270D-01-0.320D-02 0.261D+00
 Coeff-Com:  0.775D+00
 Coeff:      0.501D-03-0.139D-02-0.566D-02-0.270D-01-0.320D-02 0.261D+00
 Coeff:      0.775D+00
 Gap=     0.325 Goal=   None    Shift=    0.000
 RMSDP=2.64D-05 MaxDP=7.23D-04 DE=-5.58D-06 OVMax= 3.27D-04

 Cycle   8  Pass 1  IDiag  1:
 E= -456.139558174532     Delta-E=       -0.000000712040 Rises=F Damp=F
 DIIS: error= 3.68D-05 at cycle   8 NSaved=   8.
 NSaved= 8 IEnMin= 8 EnMin= -456.139558174532     IErMin= 8 ErrMin= 3.68D-05
 ErrMax= 3.68D-05  0.00D+00 EMaxC= 1.00D-01 BMatC= 1.53D-07 BMatP= 8.06D-07
 IDIUse=1 WtCom= 1.00D+00 WtEn= 0.00D+00
 Coeff-Com:  0.176D-03-0.157D-03-0.464D-02-0.215D-01-0.169D-01 0.814D-01
 Coeff-Com:  0.452D+00 0.509D+00
 Coeff:      0.176D-03-0.157D-03-0.464D-02-0.215D-01-0.169D-01 0.814D-01
 Coeff:      0.452D+00 0.509D+00
 Gap=     0.325 Goal=   None    Shift=    0.000
 RMSDP=1.11D-05 MaxDP=5.35D-04 DE=-7.12D-07 OVMax= 1.39D-04

 Cycle   9  Pass 1  IDiag  1:
 E= -456.139558288164     Delta-E=       -0.000000113632 Rises=F Damp=F
 DIIS: error= 1.29D-05 at cycle   9 NSaved=   9.
 NSaved= 9 IEnMin= 9 EnMin= -456.139558288164     IErMin= 9 ErrMin= 1.29D-05
 ErrMax= 1.29D-05  0.00D+00 EMaxC= 1.00D-01 BMatC= 1.78D-08 BMatP= 1.53D-07
 IDIUse=1 WtCom= 1.00D+00 WtEn= 0.00D+00
 Coeff-Com: -0.401D-04 0.250D-03-0.450D-03-0.252D-02-0.625D-02-0.388D-01
 Coeff-Com:  0.172D-01 0.269D+00 0.762D+00
 Coeff:     -0.401D-04 0.250D-03-0.450D-03-0.252D-02-0.625D-02-0.388D-01
 Coeff:      0.172D-01 0.269D+00 0.762D+00
 Gap=     0.325 Goal=   None    Shift=    0.000
 RMSDP=2.81D-06 MaxDP=6.21D-05 DE=-1.14D-07 OVMax= 5.92D-05

 Cycle  10  Pass 1  IDiag  1:
 E= -456.139558305865     Delta-E=       -0.000000017701 Rises=F Damp=F
 DIIS: error= 1.32D-06 at cycle  10 NSaved=  10.
 NSaved=10 IEnMin=10 EnMin= -456.139558305865     IErMin=10 ErrMin= 1.32D-06
 ErrMax= 1.32D-06  0.00D+00 EMaxC= 1.00D-01 BMatC= 1.44D-10 BMatP= 1.78D-08
 IDIUse=1 WtCom= 1.00D+00 WtEn= 0.00D+00
 Coeff-Com: -0.112D-04 0.388D-04 0.927D-04 0.294D-03-0.223D-03-0.699D-02
 Coeff-Com: -0.940D-02 0.521D-02 0.962D-01 0.915D+00
 Coeff:     -0.112D-04 0.388D-04 0.927D-04 0.294D-03-0.223D-03-0.699D-02
 Coeff:     -0.940D-02 0.521D-02 0.962D-01 0.915D+00
 Gap=     0.325 Goal=   None    Shift=    0.000
 RMSDP=5.75D-07 MaxDP=1.33D-05 DE=-1.77D-08 OVMax= 6.13D-06

 Cycle  11  Pass 1  IDiag  1:
 E= -456.139558306051     Delta-E=       -0.000000000187 Rises=F Damp=F
 DIIS: error= 4.16D-07 at cycle  11 NSaved=  11.
 NSaved=11 IEnMin=11 EnMin= -456.139558306051     IErMin=11 ErrMin= 4.16D-07
 ErrMax= 4.16D-07  0.00D+00 EMaxC= 1.00D-01 BMatC= 2.58D-11 BMatP= 1.44D-10
 IDIUse=1 WtCom= 1.00D+00 WtEn= 0.00D+00
 Coeff-Com: -0.245D-05 0.384D-05 0.651D-04 0.244D-03 0.235D-03-0.865D-03
 Coeff-Com: -0.500D-02-0.108D-01-0.144D-02 0.379D+00 0.639D+00
 Coeff:     -0.245D-05 0.384D-05 0.651D-04 0.244D-03 0.235D-03-0.865D-03
 Coeff:     -0.500D-02-0.108D-01-0.144D-02 0.379D+00 0.639D+00
 Gap=     0.325 Goal=   None    Shift=    0.000
 RMSDP=1.36D-07 MaxDP=7.58D-06 DE=-1.87D-10 OVMax= 1.44D-06

 Cycle  12  Pass 1  IDiag  1:
 E= -456.139558306069     Delta-E=       -0.000000000018 Rises=F Damp=F
 DIIS: error= 2.09D-07 at cycle  12 NSaved=  12.
 NSaved=12 IEnMin=12 EnMin= -456.139558306069     IErMin=12 ErrMin= 2.09D-07
 ErrMax= 2.09D-07  0.00D+00 EMaxC= 1.00D-01 BMatC= 3.88D-12 BMatP= 2.58D-11
 IDIUse=1 WtCom= 1.00D+00 WtEn= 0.00D+00
 Coeff-Com:  0.398D-06-0.271D-05 0.181D-04 0.641D-04 0.128D-03 0.485D-03
 Coeff-Com: -0.119D-02-0.482D-02-0.136D-01 0.520D-01 0.298D+00 0.669D+00
 Coeff:      0.398D-06-0.271D-05 0.181D-04 0.641D-04 0.128D-03 0.485D-03
 Coeff:     -0.119D-02-0.482D-02-0.136D-01 0.520D-01 0.298D+00 0.669D+00
 Gap=     0.325 Goal=   None    Shift=    0.000
 RMSDP=4.02D-08 MaxDP=1.31D-06 DE=-1.76D-11 OVMax= 5.39D-07

 Cycle  13  Pass 1  IDiag  1:
 E= -456.139558306062     Delta-E=        0.000000000007 Rises=F Damp=F
 DIIS: error= 3.09D-08 at cycle  13 NSaved=  13.
 NSaved=13 IEnMin=12 EnMin= -456.139558306069     IErMin=13 ErrMin= 3.09D-08
 ErrMax= 3.09D-08  0.00D+00 EMaxC= 1.00D-01 BMatC= 1.80D-13 BMatP= 3.88D-12
 IDIUse=1 WtCom= 1.00D+00 WtEn= 0.00D+00
 Coeff-Com:  0.349D-06-0.139D-05 0.397D-05 0.112D-04 0.404D-04 0.248D-03
 Coeff-Com: -0.190D-03-0.137D-02-0.530D-02-0.221D-02 0.817D-01 0.262D+00
 Coeff-Com:  0.665D+00
 Coeff:      0.349D-06-0.139D-05 0.397D-05 0.112D-04 0.404D-04 0.248D-03
 Coeff:     -0.190D-03-0.137D-02-0.530D-02-0.221D-02 0.817D-01 0.262D+00
 Coeff:      0.665D+00
 Gap=     0.325 Goal=   None    Shift=    0.000
 RMSDP=7.41D-09 MaxDP=1.66D-07 DE= 7.28D-12 OVMax= 7.93D-08

 SCF Done:  E(RBMK) =  -456.139558306     A.U. after   13 cycles
            NFock= 13  Conv=0.74D-08     -V/T= 2.0074
 KE= 4.528103149023D+02 PE=-1.927651402800D+03 EE= 5.871838726864D+02
 Leave Link  502 at Wed Sep  3 14:19:23 2025, MaxMem=  8053063680 cpu:        84.3
 (Enter /nexus/posix0/bmm/home/sucerqdl/sw/g09/l801.exe)
 DoSCS=F DFT=T ScalE2(SS,OS)=  1.000000  1.000000
 Range of M.O.s used for correlation:     1   137
 NBasis=   137 NAE=    35 NBE=    35 NFC=     0 NFV=     0
 NROrb=    137 NOA=    35 NOB=    35 NVA=   102 NVB=   102

 **** Warning!!: The largest alpha MO coefficient is  0.49612857D+02

 Leave Link  801 at Wed Sep  3 14:19:23 2025, MaxMem=  8053063680 cpu:         0.3
 (Enter /nexus/posix0/bmm/home/sucerqdl/sw/g09/l1101.exe)
 Using compressed storage, NAtomX=    19.
 Will process     20 centers per pass.
 Leave Link 1101 at Wed Sep  3 14:19:23 2025, MaxMem=  8053063680 cpu:         1.7
 (Enter /nexus/posix0/bmm/home/sucerqdl/sw/g09/l1102.exe)
 Symmetrizing basis deriv contribution to polar:
 IMax=3 JMax=2 DiffMx= 0.00D+00
 Leave Link 1102 at Wed Sep  3 14:19:23 2025, MaxMem=  8053063680 cpu:         0.4
 (Enter /nexus/posix0/bmm/home/sucerqdl/sw/g09/l1110.exe)
 Forming Gx(P) for the SCF density, NAtomX=    19.
 Integral derivatives from FoFJK, PRISM(SPDF).
 Do as many integral derivatives as possible in FoFJK.
 G2DrvN: MDV=    8053063424.
 G2DrvN: will do    20 centers at a time, making    1 passes.
 Calling FoFCou, ICntrl=  3107 FMM=F I1Cent=   0 AccDes= 0.00D+00.
 FoFJK:  IHMeth= 1 ICntrl=    3107 DoSepK=F KAlg= 0 I1Cent=   0 FoldK=F
 IRaf=         0 NMat=   1 IRICut=       1 DoRegI=T DoRafI=F ISym2E= 0.
 FoFCou: FMM=F IPFlag=           0 FMFlag=      100000 FMFlg1=           0
         NFxFlg=           0 DoJE=F BraDBF=F KetDBF=F FulRan=T
         wScrn=  0.000000 ICntrl=    3107 IOpCl=  0 I1Cent=           0 NGrid=           0
         NMat0=    1 NMatS0=      1 NMatT0=    0 NMatD0=    1 NMtDS0=    0 NMtDT0=    0
 Symmetry not used in FoFCou.
 End of G2Drv F.D. properties file   721 does not exist.
 End of G2Drv F.D. properties file   722 does not exist.
 End of G2Drv F.D. properties file   788 does not exist.
 Leave Link 1110 at Wed Sep  3 14:19:32 2025, MaxMem=  8053063680 cpu:       140.3
 (Enter /nexus/posix0/bmm/home/sucerqdl/sw/g09/l1002.exe)
 Minotr:  Closed shell wavefunction.
          IDoAtm=1111111111111111111
          Direct CPHF calculation.
          Differentiating once with respect to nuclear coordinates.
          Requested convergence is 1.0D-08 RMS, and 1.0D-07 maximum.
          Secondary convergence is 1.0D-12 RMS, and 1.0D-12 maximum.
          NewPWx=T KeepS1=F KeepF1=F KeepIn=T MapXYZ=F SortEE=F KeepMc=T.
          MDV=    8053063349 using IRadAn=       2.
 Generate precomputed XC quadrature information.
 Keep R1 ints in memory in canonical form, NReq=46004208.
 FoFCou: FMM=F IPFlag=           0 FMFlag=           0 FMFlg1=           0
         NFxFlg=           0 DoJE=F BraDBF=F KetDBF=F FulRan=T
         wScrn=  0.000000 ICntrl=     600 IOpCl=  0 I1Cent=           0 NGrid=           0
         NMat0=    1 NMatS0=   9453 NMatT0=    0 NMatD0=    1 NMtDS0=    0 NMtDT0=    0
 Symmetry not used in FoFCou.
          Solving linear equations simultaneously, MaxMat=       0.
          There are    60 degrees of freedom in the 1st order CPHF.  IDoFFX=6 NUNeed=     0.
     54 vectors produced by pass  0 Test12= 5.95D-15 1.67D-09 XBig12= 1.37D-01 9.73D-02.
 AX will form    54 AO Fock derivatives at one time.
     54 vectors produced by pass  1 Test12= 5.95D-15 1.67D-09 XBig12= 1.07D-02 3.50D-02.
     54 vectors produced by pass  2 Test12= 5.95D-15 1.67D-09 XBig12= 8.63D-05 2.40D-03.
     54 vectors produced by pass  3 Test12= 5.95D-15 1.67D-09 XBig12= 2.49D-07 9.12D-05.
     54 vectors produced by pass  4 Test12= 5.95D-15 1.67D-09 XBig12= 7.70D-10 5.33D-06.
     54 vectors produced by pass  5 Test12= 5.95D-15 1.67D-09 XBig12= 1.87D-12 2.63D-07.
     23 vectors produced by pass  6 Test12= 5.95D-15 1.67D-09 XBig12= 8.98D-15 2.16D-08.
      3 vectors produced by pass  7 Test12= 5.95D-15 1.67D-09 XBig12= 1.43D-16 2.17D-09.
      3 vectors produced by pass  8 Test12= 5.95D-15 1.67D-09 XBig12= 1.82D-16 2.05D-09.
 InvSVY:  IOpt=1 It=  1 EMax= 3.89D-16
 Solved reduced A of dimension   353 with    60 vectors.
 End of Minotr F.D. properties file   721 does not exist.
 End of Minotr F.D. properties file   722 does not exist.
 End of Minotr F.D. properties file   788 does not exist.
 Leave Link 1002 at Wed Sep  3 14:19:41 2025, MaxMem=  8053063680 cpu:       142.2
 (Enter /nexus/posix0/bmm/home/sucerqdl/sw/g09/l601.exe)
 Copying SCF densities to generalized density rwf, IOpCl= 0 IROHF=0.

 **********************************************************************

            Population analysis using the SCF density.

 **********************************************************************

 Orbital symmetries:
       Occupied  (A) (A) (A) (A) (A) (A) (A) (A) (A) (A) (A) (A)
                 (A) (A) (A) (A) (A) (A) (A) (A) (A) (A) (A) (A)
                 (A) (A) (A) (A) (A) (A) (A) (A) (A) (A) (A)
       Virtual   (A) (A) (A) (A) (A) (A) (A) (A) (A) (A) (A) (A)
                 (A) (A) (A) (A) (A) (A) (A) (A) (A) (A) (A) (A)
                 (A) (A) (A) (A) (A) (A) (A) (A) (A) (A) (A) (A)
                 (A) (A) (A) (A) (A) (A) (A) (A) (A) (A) (A) (A)
                 (A) (A) (A) (A) (A) (A) (A) (A) (A) (A) (A) (A)
                 (A) (A) (A) (A) (A) (A) (A) (A) (A) (A) (A) (A)
                 (A) (A) (A) (A) (A) (A) (A) (A) (A) (A) (A) (A)
                 (A) (A) (A) (A) (A) (A) (A) (A) (A) (A) (A) (A)
                 (A) (A) (A) (A) (A) (A)
 The electronic state is 1-A.
 Alpha  occ. eigenvalues --  -19.54305 -19.52195 -14.72788 -14.71591 -10.62863
 Alpha  occ. eigenvalues --  -10.61180 -10.54369 -10.53018 -10.49178  -1.15389
 Alpha  occ. eigenvalues --   -1.13548  -1.00658  -0.99347  -0.82929  -0.79975
 Alpha  occ. eigenvalues --   -0.76229  -0.65408  -0.64546  -0.59052  -0.53650
 Alpha  occ. eigenvalues --   -0.53019  -0.52860  -0.50546  -0.50315  -0.48371
 Alpha  occ. eigenvalues --   -0.47038  -0.45304  -0.45157  -0.43888  -0.43663
 Alpha  occ. eigenvalues --   -0.40259  -0.32308  -0.31269  -0.30040  -0.29613
 Alpha virt. eigenvalues --    0.02917   0.03146   0.03954   0.04544   0.04922
 Alpha virt. eigenvalues --    0.06725   0.06937   0.08007   0.08967   0.09149
 Alpha virt. eigenvalues --    0.10009   0.10856   0.11336   0.12166   0.13086
 Alpha virt. eigenvalues --    0.13312   0.14069   0.15717   0.15835   0.16567
 Alpha virt. eigenvalues --    0.17375   0.18542   0.20352   0.20388   0.20726
 Alpha virt. eigenvalues --    0.22074   0.22794   0.23390   0.23895   0.24594
 Alpha virt. eigenvalues --    0.25594   0.25912   0.26917   0.27311   0.28537
 Alpha virt. eigenvalues --    0.28554   0.29774   0.29984   0.31134   0.31482
 Alpha virt. eigenvalues --    0.32069   0.33480   0.35019   0.35932   0.36316
 Alpha virt. eigenvalues --    0.37702   0.38433   0.39309   0.41313   0.42203
 Alpha virt. eigenvalues --    0.45104   0.45823   0.46674   0.49272   0.53540
 Alpha virt. eigenvalues --    0.56352   0.68435   0.69567   0.70261   0.71462
 Alpha virt. eigenvalues --    0.71897   0.73274   0.76929   0.78771   0.79040
 Alpha virt. eigenvalues --    0.81886   0.85616   0.86391   0.91373   0.93884
 Alpha virt. eigenvalues --    0.97959   0.98012   1.01484   1.04204   1.09696
 Alpha virt. eigenvalues --    1.11403   1.12236   1.12269   1.14252   1.17038
 Alpha virt. eigenvalues --    1.18112   1.19312   1.21139   1.23812   1.26935
 Alpha virt. eigenvalues --    1.30911   1.34647   1.35679   1.36888   1.37853
 Alpha virt. eigenvalues --    1.43498   1.44807   1.48498   1.50202   1.52641
 Alpha virt. eigenvalues --    1.55701   1.59749   1.64714   1.71089   1.85036
 Alpha virt. eigenvalues --    2.07469   2.13448
          Condensed to atoms (all electrons):
               1          2          3          4          5          6
     1  C    6.561317   0.372036   0.412156   0.412139  -0.439282  -0.102238
     2  H    0.372036   0.528783  -0.026161  -0.026162  -0.056096   0.006678
     3  H    0.412156  -0.026161   0.466947  -0.022660  -0.056071  -0.004711
     4  H    0.412139  -0.026162  -0.022660   0.466952  -0.056057  -0.004711
     5  C   -0.439282  -0.056096  -0.056071  -0.056057   5.918275   0.427388
     6  O   -0.102238   0.006678  -0.004711  -0.004711   0.427388   8.484859
     7  N   -0.333694   0.009165   0.001992   0.001990  -0.113900  -0.227562
     8  H    0.011791   0.000715   0.000016   0.000016   0.019385   0.004860
     9  C   -0.292205  -0.001017  -0.004319  -0.004318  -0.896937  -0.053139
    10  H   -0.001231  -0.000001   0.000019  -0.000007   0.003220   0.001203
    11  H   -0.001232  -0.000001  -0.000007   0.000019   0.003217   0.001203
    12  C    0.157292   0.000114  -0.000785  -0.000785   0.542397   0.024600
    13  O   -0.001725  -0.000013   0.000004   0.000004   0.010783  -0.000424
    14  N    0.000375   0.000025  -0.000003  -0.000003   0.017634  -0.002323
    15  H    0.000101   0.000000   0.000000   0.000000   0.001118   0.000091
    16  C    0.001037   0.000011   0.000000   0.000000   0.008606  -0.000348
    17  H    0.000002   0.000000   0.000000   0.000000   0.000025   0.000000
    18  H   -0.000004   0.000000   0.000000   0.000000  -0.000164   0.000000
    19  H    0.000002   0.000000   0.000000   0.000000   0.000025   0.000000
               7          8          9         10         11         12
     1  C   -0.333694   0.011791  -0.292205  -0.001231  -0.001232   0.157292
     2  H    0.009165   0.000715  -0.001017  -0.000001  -0.000001   0.000114
     3  H    0.001992   0.000016  -0.004319   0.000019  -0.000007  -0.000785
     4  H    0.001990   0.000016  -0.004318  -0.000007   0.000019  -0.000785
     5  C   -0.113900   0.019385  -0.896937   0.003220   0.003217   0.542397
     6  O   -0.227562   0.004860  -0.053139   0.001203   0.001203   0.024600
     7  N    7.849033   0.263650   0.315153  -0.048926  -0.048935  -0.154960
     8  H    0.263650   0.302020  -0.084602   0.002019   0.002019   0.040970
     9  C    0.315153  -0.084602  12.017232   0.336343   0.336341  -4.180145
    10  H   -0.048926   0.002019   0.336343   0.489706  -0.037048  -0.005503
    11  H   -0.048935   0.002019   0.336341  -0.037048   0.489705  -0.005492
    12  C   -0.154960   0.040970  -4.180145  -0.005503  -0.005492   8.175187
    13  O    0.019788   0.009423   0.069148   0.000634   0.000636   0.241777
    14  N    0.013799   0.003678  -0.775623   0.014296   0.014299   0.456507
    15  H    0.000449  -0.000011   0.026334  -0.000272  -0.000272  -0.021086
    16  C    0.002597   0.001281  -0.232445   0.003436   0.003436  -0.020756
    17  H   -0.000037   0.000000   0.006896   0.000014  -0.000005  -0.001392
    18  H   -0.000167   0.000000  -0.009499  -0.000007  -0.000007  -0.010483
    19  H   -0.000037   0.000000   0.006893  -0.000005   0.000014  -0.001396
              13         14         15         16         17         18
     1  C   -0.001725   0.000375   0.000101   0.001037   0.000002  -0.000004
     2  H   -0.000013   0.000025   0.000000   0.000011   0.000000   0.000000
     3  H    0.000004  -0.000003   0.000000   0.000000   0.000000   0.000000
     4  H    0.000004  -0.000003   0.000000   0.000000   0.000000   0.000000
     5  C    0.010783   0.017634   0.001118   0.008606   0.000025  -0.000164
     6  O   -0.000424  -0.002323   0.000091  -0.000348   0.000000   0.000000
     7  N    0.019788   0.013799   0.000449   0.002597  -0.000037  -0.000167
     8  H    0.009423   0.003678  -0.000011   0.001281   0.000000   0.000000
     9  C    0.069148  -0.775623   0.026334  -0.232445   0.006896  -0.009499
    10  H    0.000634   0.014296  -0.000272   0.003436   0.000014  -0.000007
    11  H    0.000636   0.014299  -0.000272   0.003436  -0.000005  -0.000007
    12  C    0.241777   0.456507  -0.021086  -0.020756  -0.001392  -0.010483
    13  O    8.489059  -0.228455   0.006543  -0.037549   0.000597   0.006734
    14  N   -0.228455   7.731693   0.276450   0.192546  -0.045831  -0.052102
    15  H    0.006543   0.276450   0.358363  -0.022152  -0.000929   0.002598
    16  C   -0.037549   0.192546  -0.022152   5.337674   0.382136   0.420417
    17  H    0.000597  -0.045831  -0.000929   0.382136   0.514758  -0.023162
    18  H    0.006734  -0.052102   0.002598   0.420417  -0.023162   0.444294
    19  H    0.000597  -0.045834  -0.000927   0.382143  -0.036839  -0.023164
              19
     1  C    0.000002
     2  H    0.000000
     3  H    0.000000
     4  H    0.000000
     5  C    0.000025
     6  O    0.000000
     7  N   -0.000037
     8  H    0.000000
     9  C    0.006893
    10  H   -0.000005
    11  H    0.000014
    12  C   -0.001396
    13  O    0.000597
    14  N   -0.045834
    15  H   -0.000927
    16  C    0.382143
    17  H   -0.036839
    18  H   -0.023164
    19  H    0.514753
 Mulliken charges:
               1
     1  C   -0.756639
     2  H    0.191925
     3  H    0.233583
     4  H    0.233582
     5  C    0.666433
     6  O   -0.555426
     7  N   -0.549398
     8  H    0.422769
     9  C   -0.580090
    10  H    0.242110
    11  H    0.242108
    12  C    0.763941
    13  O   -0.587561
    14  N   -0.571127
    15  H    0.373603
    16  C   -0.422069
    17  H    0.203767
    18  H    0.244715
    19  H    0.203775
 Sum of Mulliken charges =   0.00000
 Mulliken charges with hydrogens summed into heavy atoms:
               1
     1  C   -0.097549
     5  C    0.666433
     6  O   -0.555426
     7  N   -0.126629
     9  C   -0.095872
    12  C    0.763941
    13  O   -0.587561
    14  N   -0.197524
    16  C    0.230188
 APT charges:
               1
     1  C   -1.845195
     2  H    0.351906
     3  H    0.678506
     4  H    0.678449
     5  C    0.502451
     6  O   -0.513260
     7  N   -0.577862
     8  H    0.557530
     9  C   -0.833907
    10  H    0.442301
    11  H    0.442293
    12  C    0.432452
    13  O   -0.584070
    14  N   -0.188772
    15  H    0.554608
    16  C   -1.843061
    17  H    0.668647
    18  H    0.408414
    19  H    0.668571
 Sum of APT charges =   0.00000
 APT charges with hydrogens summed into heavy atoms:
               1
     1  C   -0.136335
     5  C    0.502451
     6  O   -0.513260
     7  N   -0.020332
     9  C    0.050687
    12  C    0.432452
    13  O   -0.584070
    14  N    0.365836
    16  C   -0.097429
 Electronic spatial extent (au):  <R**2>=           2033.7449
 Charge=              0.0000 electrons
 Dipole moment (field-independent basis, Debye):
    X=              2.7034    Y=             -0.2959    Z=              0.0000  Tot=              2.7195
 Quadrupole moment (field-independent basis, Debye-Ang):
   XX=            -42.8215   YY=            -61.3274   ZZ=            -55.3400
   XY=            -18.0095   XZ=             -0.0002   YZ=             -0.0002
 Traceless Quadrupole moment (field-independent basis, Debye-Ang):
   XX=             10.3415   YY=             -8.1645   ZZ=             -2.1770
   XY=            -18.0095   XZ=             -0.0002   YZ=             -0.0002
 Octapole moment (field-independent basis, Debye-Ang**2):
  XXX=             45.4301  YYY=             -1.4962  ZZZ=              0.0008  XYY=             12.1861
  XXY=             16.4272  XXZ=              0.0000  XZZ=             -1.4445  YZZ=             -1.8221
  YYZ=             -0.0004  XYZ=             -0.0007
 Hexadecapole moment (field-independent basis, Debye-Ang**3):
 XXXX=          -1959.0361 YYYY=           -307.5196 ZZZZ=            -74.8926 XXXY=           -100.6716
 XXXZ=             -0.0042 YYYX=            -50.3449 YYYZ=             -0.0015 ZZZX=             -0.0012
 ZZZY=              0.0004 XXYY=           -472.6701 XXZZ=           -386.6267 YYZZ=            -62.7824
 XXYZ=              0.0012 YYXZ=             -0.0028 ZZXY=              2.5759
 N-N= 4.315176569047D+02 E-N=-1.927651402684D+03  KE= 4.528103149023D+02
  Exact polarizability:   0.000   0.000   0.000   0.000   0.000   0.000
 Approx polarizability:  98.695  -0.481 111.464   0.000   0.000  63.106
 No NMR shielding tensors so no spin-rotation constants.
 Leave Link  601 at Wed Sep  3 14:19:41 2025, MaxMem=  8053063680 cpu:         1.3
 (Enter /nexus/posix0/bmm/home/sucerqdl/sw/g09/l701.exe)
 Compute integral second derivatives.
 ... and contract with generalized density number  0.
 Leave Link  701 at Wed Sep  3 14:19:41 2025, MaxMem=  8053063680 cpu:         1.5
 (Enter /nexus/posix0/bmm/home/sucerqdl/sw/g09/l702.exe)
 L702 exits ... SP integral derivatives will be done elsewhere.
 Leave Link  702 at Wed Sep  3 14:19:42 2025, MaxMem=  8053063680 cpu:         0.3
 (Enter /nexus/posix0/bmm/home/sucerqdl/sw/g09/l703.exe)
 Compute integral second derivatives, UseDBF=F ICtDFT=           0.
 Integral derivatives from FoFJK, PRISM(SPDF).
 Calling FoFJK, ICntrl=    100147 FMM=F ISym2X=0 I1Cent= 0 IOpClX= 0 NMat=1 NMatS=1 NMatT=0.
 FoFJK:  IHMeth= 1 ICntrl=  100147 DoSepK=F KAlg= 0 I1Cent=   0 FoldK=F
 IRaf=         0 NMat=   1 IRICut=       1 DoRegI=T DoRafI=F ISym2E= 0.
 FoFCou: FMM=F IPFlag=           0 FMFlag=      100000 FMFlg1=         800
         NFxFlg=           0 DoJE=F BraDBF=F KetDBF=F FulRan=T
         wScrn=  0.000000 ICntrl=  100147 IOpCl=  0 I1Cent=           0 NGrid=           0
         NMat0=    1 NMatS0=      1 NMatT0=    0 NMatD0=    1 NMtDS0=    0 NMtDT0=    0
 Symmetry not used in FoFCou.
 Leave Link  703 at Wed Sep  3 14:19:48 2025, MaxMem=  8053063680 cpu:       103.7
 (Enter /nexus/posix0/bmm/home/sucerqdl/sw/g09/l716.exe)
 Dipole        = 1.06358676D+00-1.16434255D-01 7.59126134D-06
 Polarizability= 0.00000000D+00 0.00000000D+00 0.00000000D+00
                 0.00000000D+00 0.00000000D+00 0.00000000D+00
 ***** Axes restored to original set *****
 -------------------------------------------------------------------
 Center     Atomic                   Forces (Hartrees/Bohr)
 Number     Number              X              Y              Z
 -------------------------------------------------------------------
      1        6           0.029457045   -0.003419921   -0.000001151
      2        1          -0.000450758   -0.000078464   -0.000000221
      3        1           0.005317811    0.000587745    0.002523355
      4        1           0.005315549    0.000586487   -0.002522494
      5        6           0.006687875    0.001215458    0.000000930
      6        8          -0.000032637    0.004724317   -0.000000626
      7        7          -0.002731082   -0.006185549    0.000000235
      8        1          -0.000389199    0.000268911   -0.000000422
      9        6          -0.002162802    0.002231784    0.000001160
     10        1          -0.000513675    0.000716257   -0.000014454
     11        1          -0.000511846    0.000716867    0.000014261
     12        6           0.005561235   -0.000582821   -0.000000195
     13        8           0.000948731   -0.004493729   -0.000000193
     14        7          -0.004105970    0.006866814   -0.000000093
     15        1           0.000436787   -0.000387659   -0.000000256
     16        6          -0.031283242   -0.003281905    0.000000559
     17        1          -0.005648864    0.000308267    0.002425006
     18        1          -0.000246458   -0.000100200    0.000001552
     19        1          -0.005648502    0.000307341   -0.002426954
 -------------------------------------------------------------------
 Cartesian Forces:  Max     0.031283242 RMS     0.006292894
 FormGI is forming the generalized inverse of G from B-inverse, IUseBI=4.
 GSVD:  received Info=                   1 from GESDD.
 Leave Link  716 at Wed Sep  3 14:19:48 2025, MaxMem=  8053063680 cpu:         0.5
 (Enter /nexus/posix0/bmm/home/sucerqdl/sw/g09/l103.exe)

 GradGradGradGradGradGradGradGradGradGradGradGradGradGradGradGradGradGrad
 Berny optimization.
 Red2BG is reusing G-inverse.
 Internal  Forces:  Max     0.034337207 RMS     0.005207829
 Search for a local minimum.
 Step number   1 out of a maximum of   91
 All quantities printed in internal units (Hartrees-Bohrs-Radians)
 RMS Force = .33085D-02 SwitMx=.10000D-02 MixMth= 1
 Mixed Optimization -- RFO/linear search
 Second derivative matrix not updated -- analytic derivatives used.
 ITU=  0
     Eigenvalues ---    0.00035   0.00094   0.00197   0.00509   0.00723
     Eigenvalues ---    0.00853   0.02071   0.02911   0.04235   0.05026
     Eigenvalues ---    0.05445   0.05876   0.06133   0.06501   0.06750
     Eigenvalues ---    0.08077   0.08675   0.11374   0.11459   0.12407
     Eigenvalues ---    0.13170   0.13442   0.13597   0.14606   0.16514
     Eigenvalues ---    0.17565   0.18763   0.19710   0.20885   0.21082
     Eigenvalues ---    0.21999   0.23812   0.27068   0.27717   0.30665
     Eigenvalues ---    0.33749   0.33759   0.33972   0.34379   0.34430
     Eigenvalues ---    0.34610   0.35388   0.35880   0.36453   0.37497
     Eigenvalues ---    0.37635   0.48581   0.48858   0.74385   0.75613
     Eigenvalues --- 1000.000001000.000001000.000001000.000001000.00000
     Eigenvalues --- 1000.000001000.000001000.000001000.000001000.00000
     Eigenvalues --- 1000.000001000.000001000.000001000.000001000.00000
     Eigenvalues --- 1000.000001000.000001000.000001000.000001000.00000
     Eigenvalues --- 1000.000001000.000001000.000001000.000001000.00000
     Eigenvalues --- 1000.000001000.000001000.000001000.000001000.00000
     Eigenvalues --- 1000.00000
 RFO step:  Lambda=-2.85313464D-03 EMin= 3.53935718D-04
 Linear search not attempted -- first point.
 Iteration  1 RMS(Cart)=  0.06379279 RMS(Int)=  0.00147234
 Iteration  2 RMS(Cart)=  0.00160919 RMS(Int)=  0.00031278
 Iteration  3 RMS(Cart)=  0.00000604 RMS(Int)=  0.00031277
 Iteration  4 RMS(Cart)=  0.00000003 RMS(Int)=  0.00031277
 Iteration  1 RMS(Cart)=  0.00018149 RMS(Int)=  0.00003464
 Iteration  2 RMS(Cart)=  0.00002118 RMS(Int)=  0.00003638
 Iteration  3 RMS(Cart)=  0.00000247 RMS(Int)=  0.00003680
 Iteration  4 RMS(Cart)=  0.00000029 RMS(Int)=  0.00003685
 ITry= 1 IFail=0 DXMaxC= 1.69D-01 DCOld= 1.00D+10 DXMaxT= 3.00D-01 DXLimC= 3.00D+00 Rises=F
 Variable       Old X    -DE/DX   Delta X   Delta X   Delta X     New X
                                 (Linear)    (Quad)   (Total)
    R1        2.07175  -0.00012   0.00000  -0.00086  -0.00086   2.07089
    R2        2.08372  -0.00493   0.00000  -0.01535  -0.01535   2.06837
    R3        2.08371  -0.00492   0.00000  -0.01534  -0.01534   2.06837
    R4        3.00436  -0.00578   0.00000   0.00016   0.00110   3.00546
    R5       14.90181  -0.03434   0.00000   0.00000   0.00000  14.90181
    R6        2.35865  -0.00472   0.00000  -0.00096  -0.00096   2.35769
    R7        2.66063  -0.01219   0.00000  -0.02681  -0.02593   2.63471
    R8        1.91287   0.00024   0.00000  -0.00001  -0.00001   1.91285
    R9        2.84171  -0.00882   0.00000  -0.01805  -0.01715   2.82456
   R10        2.07980  -0.00043   0.00000  -0.00082  -0.00082   2.07898
   R11        2.07979  -0.00043   0.00000  -0.00082  -0.00082   2.07898
   R12        2.99458  -0.00541   0.00000  -0.01040  -0.00955   2.98504
   R13        2.34733  -0.00455   0.00000  -0.00339  -0.00339   2.34394
   R14        2.65576  -0.01243   0.00000  -0.02803  -0.02714   2.62861
   R15        1.91140   0.00036   0.00000   0.00114   0.00114   1.91253
   R16        2.89041  -0.00890   0.00000  -0.01026  -0.00929   2.88112
   R17        2.08364  -0.00490   0.00000  -0.01535  -0.01535   2.06829
   R18        2.06826  -0.00007   0.00000  -0.00069  -0.00069   2.06757
   R19        2.08364  -0.00490   0.00000  -0.01535  -0.01535   2.06829
    A1        1.91742   0.00111   0.00000   0.00809   0.00818   1.92560
    A2        1.91741   0.00111   0.00000   0.00809   0.00818   1.92559
    A3        1.96217   0.00206   0.00000   0.01690   0.01699   1.97915
    A4        1.87875   0.00375   0.00000   0.02903   0.02854   1.90729
    A5        1.89299  -0.00402   0.00000  -0.03112  -0.03128   1.86171
    A6        1.89299  -0.00402   0.00000  -0.03111  -0.03127   1.86172
    A7        2.06024  -0.00169   0.00000  -0.02105  -0.02147   2.03877
    A8        2.14931   0.00340   0.00000   0.02650   0.02736   2.17667
    A9        2.07363  -0.00171   0.00000  -0.00546  -0.00588   2.06775
   A10        2.14235   0.00386   0.00000   0.00704   0.00700   2.14935
   A11        2.10766  -0.00849   0.00000  -0.02206  -0.02199   2.08567
   A12        2.03318   0.00463   0.00000   0.01502   0.01499   2.04817
   A13        1.89593  -0.00165   0.00000  -0.00742  -0.00772   1.88820
   A14        1.89591  -0.00164   0.00000  -0.00740  -0.00770   1.88821
   A15        2.01317   0.00412   0.00000   0.01799   0.01894   2.03211
   A16        1.85841   0.00083   0.00000  -0.00063  -0.00058   1.85783
   A17        1.89718  -0.00093   0.00000  -0.00189  -0.00215   1.89504
   A18        1.89722  -0.00093   0.00000  -0.00193  -0.00219   1.89503
   A19        2.10504   0.00430   0.00000   0.00811   0.00798   2.11302
   A20        2.02538  -0.00715   0.00000  -0.01351  -0.01325   2.01213
   A21        2.15276   0.00285   0.00000   0.00539   0.00526   2.15803
   A22        2.02777  -0.00067   0.00000  -0.00180  -0.00213   2.02564
   A23        2.24415   0.00221   0.00000   0.01687   0.01754   2.26168
   A24        2.01127  -0.00154   0.00000  -0.01507  -0.01540   1.99586
   A25        1.93236  -0.00441   0.00000  -0.02668  -0.02685   1.90550
   A26        1.86711   0.00111   0.00000   0.00581   0.00580   1.87291
   A27        1.93239  -0.00441   0.00000  -0.02670  -0.02686   1.90552
   A28        1.91247   0.00164   0.00000   0.00894   0.00893   1.92140
   A29        1.90666   0.00442   0.00000   0.02955   0.02922   1.93589
   A30        1.91248   0.00164   0.00000   0.00893   0.00892   1.92140
    D1       -3.14149   0.00000   0.00000   0.00000   0.00000  -3.14149
    D2        0.00011   0.00000   0.00000   0.00000   0.00000   0.00011
    D3       -1.01774  -0.00005   0.00000  -0.00037  -0.00062  -1.01836
    D4        2.12387  -0.00005   0.00000  -0.00038  -0.00063   2.12324
    D5        1.01795   0.00005   0.00000   0.00037   0.00062   1.01857
    D6       -2.12363   0.00005   0.00000   0.00036   0.00061  -2.12302
    D7        0.00001   0.00000   0.00000  -0.00002  -0.00002  -0.00001
    D8        3.14159   0.00000   0.00000   0.00000   0.00000  -3.14159
    D9       -3.14157   0.00000   0.00000  -0.00003  -0.00003   3.14158
   D10        0.00001   0.00000   0.00000   0.00000   0.00000   0.00001
   D11        1.00745  -0.00039   0.00000  -0.00440  -0.00446   1.00299
   D12       -1.00731   0.00039   0.00000   0.00426   0.00432  -1.00299
   D13       -3.14154   0.00000   0.00000  -0.00005  -0.00005   3.14159
   D14       -2.13416  -0.00039   0.00000  -0.00437  -0.00443  -2.13859
   D15        2.13427   0.00039   0.00000   0.00428   0.00434   2.13861
   D16        0.00004   0.00000   0.00000  -0.00003  -0.00003   0.00001
   D17       -0.00006   0.00000   0.00000   0.00006   0.00006   0.00000
   D18        3.14156   0.00000   0.00000   0.00004   0.00004  -3.14159
   D19        2.13346   0.00001   0.00000   0.00146   0.00156   2.13503
   D20       -1.00811   0.00001   0.00000   0.00144   0.00154  -1.00656
   D21       -2.13359  -0.00001   0.00000  -0.00134  -0.00144  -2.13503
   D22        1.00802  -0.00001   0.00000  -0.00136  -0.00146   1.00657
   D23       -0.00008   0.00000   0.00000   0.00007   0.00007   0.00000
   D24        3.14153   0.00000   0.00000   0.00007   0.00007  -3.14159
   D25        3.14154   0.00000   0.00000   0.00005   0.00005   3.14159
   D26       -0.00003   0.00000   0.00000   0.00005   0.00005   0.00001
   D27       -2.08320  -0.00017   0.00000   0.00080   0.00093  -2.08228
   D28       -0.00031   0.00000   0.00000   0.00011   0.00011  -0.00021
   D29        2.08261   0.00017   0.00000  -0.00061  -0.00074   2.08187
   D30        1.05841  -0.00017   0.00000   0.00079   0.00092   1.05933
   D31        3.14130   0.00000   0.00000   0.00010   0.00010   3.14140
   D32       -1.05897   0.00017   0.00000  -0.00062  -0.00074  -1.05971
         Item               Value     Threshold  Converged?
 Maximum Force            0.008821     0.000450     NO 
 RMS     Force            0.003308     0.000300     NO 
 Maximum Displacement     0.168993     0.001800     NO 
 RMS     Displacement     0.064691     0.001200     NO 
 Predicted change in Energy=-1.410707D-03
 Lowest energy point so far.  Saving SCF results.
 GradGradGradGradGradGradGradGradGradGradGradGradGradGradGradGradGradGrad

 Leave Link  103 at Wed Sep  3 14:19:48 2025, MaxMem=  8053063680 cpu:         0.5
 (Enter /nexus/posix0/bmm/home/sucerqdl/sw/g09/l202.exe)
                          Input orientation:                          
 ---------------------------------------------------------------------
 Center     Atomic      Atomic             Coordinates (Angstroms)
 Number     Number       Type             X           Y           Z
 ---------------------------------------------------------------------
      1          6           0       -0.004186   -0.044263   -0.000027
      2          1           0        0.015869    1.051423   -0.000150
      3          1           0       -0.517686   -0.415276   -0.892590
      4          1           0       -0.517619   -0.415067    0.892663
      5          6           0        1.443661   -0.702426   -0.000014
      6          8           0        1.495190   -1.948995    0.000009
      7          7           0        2.640742    0.012320   -0.000021
      8          1           0        2.681511    1.023736   -0.000046
      9          6           0        3.939601   -0.727324   -0.000010
     10          1           0        3.959827   -1.385689   -0.881187
     11          1           0        3.959832   -1.385667    0.881183
     12          6           0        5.250561    0.153905   -0.000020
     13          8           0        5.189067    1.392740   -0.000036
     14          7           0        6.445325   -0.558434   -0.000014
     15          1           0        6.361631   -1.567037    0.000000
     16          6           0        7.881510   -0.046722   -0.000012
     17          1           0        8.390016   -0.402693   -0.901464
     18          1           0        7.837578    1.046506   -0.000231
     19          1           0        8.389906   -0.402331    0.901646
 ---------------------------------------------------------------------
                    Distance matrix (angstroms):
                    1          2          3          4          5
     1  C    0.000000
     2  H    1.095870   0.000000
     3  H    1.094532   1.797869   0.000000
     4  H    1.094534   1.797865   1.785253   0.000000
     5  C    1.590421   2.261543   2.173943   2.173951   0.000000
     6  O    2.424073   3.345280   2.683411   2.683498   1.247634
     7  N    2.645533   2.823065   3.309862   3.309802   1.394226
     8  H    2.890258   2.665786   3.619703   3.619602   2.124125
     9  C    4.002503   4.308088   4.556477   4.556444   2.496065
    10  H    4.276595   4.719168   4.581480   4.912858   2.752164
    11  H    4.276603   4.719216   4.912850   4.581458   2.752170
    12  C    5.258482   5.311077   5.864582   5.864512   3.902024
    13  O    5.388400   5.184446   6.052488   6.052383   4.291595
    14  N    6.469974   6.627937   7.021446   7.021397   5.003736
    15  H    6.545415   6.864767   7.031946   7.031924   4.993393
    16  C    7.885697   7.941930   8.454527   8.454461   6.471156
    17  H    8.450070   8.547114   8.907715   9.086528   7.011013
    18  H    7.917262   7.821711   8.528983   8.528937   6.628796
    19  H    8.449971   8.546996   9.086509   8.907539   7.010946
                    6          7          8          9         10
     6  O    0.000000
     7  N    2.271354   0.000000
     8  H    3.200701   1.012237   0.000000
     9  C    2.732696   1.494693   2.156154   0.000000
    10  H    2.677360   2.114443   2.866327   1.100148   0.000000
    11  H    2.677362   2.114447   2.866337   1.100148   1.762371
    12  C    4.304068   2.613656   2.712309   1.579614   2.193809
    13  O    4.981157   2.898192   2.534561   2.460861   3.163404
    14  N    5.141741   3.847156   4.082837   2.511409   2.763787
    15  H    4.881407   4.042200   4.500598   2.563463   2.564769
    16  C    6.663612   5.241101   5.309037   4.000233   4.236614
    17  H    7.123365   5.834294   5.952670   4.552384   4.537980
    18  H    7.014193   5.298739   5.156117   4.282604   4.661395
    19  H    7.123358   5.834194   5.952519   4.552342   4.875560
                   11         12         13         14         15
    11  H    0.000000
    12  C    2.193805   0.000000
    13  O    3.163402   1.240360   0.000000
    14  N    2.763784   1.391002   2.320617   0.000000
    15  H    2.564764   2.048443   3.183580   1.012070   0.000000
    16  C    4.236607   2.638588   3.053081   1.524624   2.149742
    17  H    4.875510   3.313394   3.779183   2.149114   2.506528
    18  H    4.661466   2.736676   2.671046   2.124665   3.001504
    19  H    4.537943   3.313290   3.778978   2.149129   2.506672
                   16         17         18         19
    16  C    0.000000
    17  H    1.094490   0.000000
    18  H    1.094111   1.793763   0.000000
    19  H    1.094491   1.803110   1.793760   0.000000
 Stoichiometry    C5H10N2O2
 Framework group  C1[X(C5H10N2O2)]
 Deg. of freedom    51
 Full point group                 C1      NOp   1
 RotChk:  IX=0 Diff= 1.46D-03
 Largest Abelian subgroup         C1      NOp   1
 Largest concise Abelian subgroup C1      NOp   1
                         Standard orientation:                         
 ---------------------------------------------------------------------
 Center     Atomic      Atomic             Coordinates (Angstroms)
 Number     Number       Type             X           Y           Z
 ---------------------------------------------------------------------
      1          6           0       -3.792307    0.662871   -0.000011
      2          1           0       -3.649057    1.749338   -0.000134
      3          1           0       -4.344303    0.352013   -0.892574
      4          1           0       -4.344213    0.352212    0.892679
      5          6           0       -2.427739   -0.154070    0.000002
      6          8           0       -2.516844   -1.398517    0.000025
      7          7           0       -1.157817    0.421399   -0.000005
      8          1           0       -1.003469    1.421799   -0.000030
      9          6           0        0.049538   -0.459737    0.000006
     10          1           0       -0.004465   -1.116194   -0.881171
     11          1           0       -0.004458   -1.116173    0.881200
     12          6           0        1.451353    0.268340   -0.000004
     13          8           0        1.529686    1.506224   -0.000020
     14          7           0        2.558349   -0.573948    0.000002
     15          1           0        2.361665   -1.566722    0.000017
     16          6           0        4.043004   -0.227136    0.000004
     17          1           0        4.508212   -0.638079   -0.901448
     18          1           0        4.122397    0.864090   -0.000215
     19          1           0        4.508144   -0.637706    0.901662
 ---------------------------------------------------------------------
 Rotational constants (GHZ):      5.0230961      0.6050469      0.5456098
 Leave Link  202 at Wed Sep  3 14:19:48 2025, MaxMem=  8053063680 cpu:         0.1
 (Enter /nexus/posix0/bmm/home/sucerqdl/sw/g09/l301.exe)
 Standard basis: 6-31+G (6D, 7F)
 Ernie: Thresh=  0.10000D-02 Tol=  0.10000D-05 Strict=F.
 There are   137 symmetry adapted cartesian basis functions of A   symmetry.
 There are   137 symmetry adapted basis functions of A   symmetry.
   137 basis functions,   274 primitive gaussians,   137 cartesian basis functions
    35 alpha electrons       35 beta electrons
       nuclear repulsion energy       433.4751239450 Hartrees.
 IExCor= 3226 DFT=T Ex+Corr=BMK ExCW=0 ScaHFX=  0.420000
 ScaDFX=  1.000000  1.000000  1.000000  1.000000 ScalE2=  1.000000  1.000000
 IRadAn=      0 IRanWt=     -1 IRanGd=            0 ICorTp=0 IEmpDi=  4
 NAtoms=   19 NActive=   19 NUniq=   19 SFac= 1.00D+00 NAtFMM=   60 NAOKFM=F Big=F
 Integral buffers will be    131072 words long.
 Raffenetti 2 integral format.
 Two-electron integral symmetry is turned on.
 Leave Link  301 at Wed Sep  3 14:19:48 2025, MaxMem=  8053063680 cpu:         0.6
 (Enter /nexus/posix0/bmm/home/sucerqdl/sw/g09/l302.exe)
 NPDir=0 NMtPBC=     1 NCelOv=     1 NCel=       1 NClECP=     1 NCelD=      1
         NCelK=      1 NCelE2=     1 NClLst=     1 CellRange=     0.0.
 One-electron integrals computed using PRISM.
 NBasis=   137 RedAO= T EigKep=  2.34D-05  NBF=   137
 NBsUse=   137 1.00D-06 EigRej= -1.00D+00 NBFU=   137
 Precomputing XC quadrature grid using
 IXCGrd= 4 IRadAn=           0 IRanWt=          -1 IRanGd=           0 AccXCQ= 0.00D+00.
 Generated NRdTot=       0 NPtTot=           0 NUsed=           0 NTot=          32
 NSgBfM=   137   137   137   137   137 MxSgAt=    19 MxSgA2=    19.
 Leave Link  302 at Wed Sep  3 14:19:49 2025, MaxMem=  8053063680 cpu:         1.8
 (Enter /nexus/posix0/bmm/home/sucerqdl/sw/g09/l303.exe)
 DipDrv:  MaxL=1.
 Leave Link  303 at Wed Sep  3 14:19:49 2025, MaxMem=  8053063680 cpu:         0.4
 (Enter /nexus/posix0/bmm/home/sucerqdl/sw/g09/l401.exe)
 Initial guess from the checkpoint file:  "G-stretched03.chk"
 B after Tr=     0.000000    0.000000    0.000000
         Rot=    1.000000    0.000004   -0.000001   -0.000628 Ang=   0.07 deg.
 Guess basis will be translated and rotated to current coordinates.
 JPrj=2 DoOrth=T DoCkMO=T.
 Generating alternative initial guess.
 ExpMin= 4.38D-02 ExpMax= 5.48D+03 ExpMxC= 8.25D+02 IAcc=2 IRadAn=         4 AccDes= 0.00D+00
 Harris functional with IExCor= 1009 and IRadAn=       4 diagonalized for initial guess.
 HarFok:  IExCor= 1009 AccDes= 0.00D+00 IRadAn=         4 IDoV= 1 UseB2=F ITyADJ=14
 ICtDFT=  3500011 ScaDFX=  1.000000  1.000000  1.000000  1.000000
 FoFCou: FMM=F IPFlag=           0 FMFlag=      100000 FMFlg1=           0
         NFxFlg=           0 DoJE=T BraDBF=F KetDBF=T FulRan=T
         wScrn=  0.000000 ICntrl=     500 IOpCl=  0 I1Cent=   200000004 NGrid=           0
         NMat0=    1 NMatS0=      1 NMatT0=    0 NMatD0=    1 NMtDS0=    0 NMtDT0=    0
 Petite list used in FoFCou.
 Harris En= -455.993668623774    
 Leave Link  401 at Wed Sep  3 14:19:49 2025, MaxMem=  8053063680 cpu:         3.4
 (Enter /nexus/posix0/bmm/home/sucerqdl/sw/g09/l502.exe)
 Closed shell SCF:
 Using DIIS extrapolation, IDIIS=  1040.
 Integral symmetry usage will be decided dynamically.
 Keep R1 ints in memory in canonical form, NReq=46076400.
 IVT=       78102 IEndB=       78102 NGot=  8053063680 MDV=  8008301248
 LenX=  8008301248 LenY=  8008282038
 Requested convergence on RMS density matrix=1.00D-08 within 128 cycles.
 Requested convergence on MAX density matrix=1.00D-06.
 Requested convergence on             energy=1.00D-06.
 No special actions if energy rises.
 FoFCou: FMM=F IPFlag=           0 FMFlag=           0 FMFlg1=           0
         NFxFlg=           0 DoJE=F BraDBF=F KetDBF=F FulRan=T
         wScrn=  0.000000 ICntrl=     600 IOpCl=  0 I1Cent=           0 NGrid=           0
         NMat0=    1 NMatS0=   9453 NMatT0=    0 NMatD0=    1 NMtDS0=    0 NMtDT0=    0
 Symmetry not used in FoFCou.

 Cycle   1  Pass 1  IDiag  1:
 E= -456.136204885654    
 DIIS: error= 3.92D-03 at cycle   1 NSaved=   1.
 NSaved= 1 IEnMin= 1 EnMin= -456.136204885654     IErMin= 1 ErrMin= 3.92D-03
 ErrMax= 3.92D-03  0.00D+00 EMaxC= 1.00D-01 BMatC= 2.96D-03 BMatP= 2.96D-03
 IDIUse=3 WtCom= 9.61D-01 WtEn= 3.92D-02
 Coeff-Com:  0.100D+01
 Coeff-En:   0.100D+01
 Coeff:      0.100D+01
 Gap=     0.507 Goal=   None    Shift=    0.000
 GapD=    0.507 DampG=2.000 DampE=1.000 DampFc=2.0000 IDamp=-1.
 RMSDP=2.17D-03 MaxDP=1.11D-01              OVMax= 1.66D-02

 Cycle   2  Pass 1  IDiag  1:
 E= -456.140731485192     Delta-E=       -0.004526599537 Rises=F Damp=F
 DIIS: error= 1.36D-03 at cycle   2 NSaved=   2.
 NSaved= 2 IEnMin= 2 EnMin= -456.140731485192     IErMin= 2 ErrMin= 1.36D-03
 ErrMax= 1.36D-03  0.00D+00 EMaxC= 1.00D-01 BMatC= 1.64D-04 BMatP= 2.96D-03
 IDIUse=3 WtCom= 9.86D-01 WtEn= 1.36D-02
 Coeff-Com: -0.926D-02 0.101D+01
 Coeff-En:   0.000D+00 0.100D+01
 Coeff:     -0.913D-02 0.101D+01
 Gap=     0.327 Goal=   None    Shift=    0.000
 RMSDP=4.66D-04 MaxDP=1.72D-02 DE=-4.53D-03 OVMax= 8.74D-03

 Cycle   3  Pass 1  IDiag  1:
 E= -456.140641445278     Delta-E=        0.000090039914 Rises=F Damp=F
 DIIS: error= 2.32D-03 at cycle   3 NSaved=   3.
 NSaved= 3 IEnMin= 2 EnMin= -456.140731485192     IErMin= 2 ErrMin= 1.36D-03
 ErrMax= 2.32D-03  0.00D+00 EMaxC= 1.00D-01 BMatC= 3.77D-04 BMatP= 1.64D-04
 IDIUse=3 WtCom= 1.72D-01 WtEn= 8.28D-01
 Coeff-Com: -0.622D-01 0.652D+00 0.410D+00
 Coeff-En:   0.000D+00 0.602D+00 0.398D+00
 Coeff:     -0.107D-01 0.610D+00 0.400D+00
 Gap=     0.328 Goal=   None    Shift=    0.000
 RMSDP=2.85D-04 MaxDP=1.13D-02 DE= 9.00D-05 OVMax= 6.06D-03

 Cycle   4  Pass 1  IDiag  1:
 E= -456.140932607573     Delta-E=       -0.000291162296 Rises=F Damp=F
 DIIS: error= 3.61D-04 at cycle   4 NSaved=   4.
 NSaved= 4 IEnMin= 4 EnMin= -456.140932607573     IErMin= 4 ErrMin= 3.61D-04
 ErrMax= 3.61D-04  0.00D+00 EMaxC= 1.00D-01 BMatC= 9.32D-06 BMatP= 1.64D-04
 IDIUse=3 WtCom= 9.96D-01 WtEn= 3.61D-03
 Coeff-Com: -0.209D-01 0.121D+00 0.170D+00 0.729D+00
 Coeff-En:   0.000D+00 0.000D+00 0.000D+00 0.100D+01
 Coeff:     -0.209D-01 0.121D+00 0.170D+00 0.730D+00
 Gap=     0.328 Goal=   None    Shift=    0.000
 RMSDP=6.79D-05 MaxDP=2.47D-03 DE=-2.91D-04 OVMax= 1.02D-03

 Cycle   5  Pass 1  IDiag  1:
 E= -456.140940083750     Delta-E=       -0.000007476177 Rises=F Damp=F
 DIIS: error= 7.22D-05 at cycle   5 NSaved=   5.
 NSaved= 5 IEnMin= 5 EnMin= -456.140940083750     IErMin= 5 ErrMin= 7.22D-05
 ErrMax= 7.22D-05  0.00D+00 EMaxC= 1.00D-01 BMatC= 1.05D-06 BMatP= 9.32D-06
 IDIUse=1 WtCom= 1.00D+00 WtEn= 0.00D+00
 Coeff-Com: -0.122D-02-0.330D-01 0.235D-01 0.349D+00 0.662D+00
 Coeff:     -0.122D-02-0.330D-01 0.235D-01 0.349D+00 0.662D+00
 Gap=     0.328 Goal=   None    Shift=    0.000
 RMSDP=1.66D-05 MaxDP=4.14D-04 DE=-7.48D-06 OVMax= 1.87D-04

 Cycle   6  Pass 1  IDiag  1:
 E= -456.140940991292     Delta-E=       -0.000000907542 Rises=F Damp=F
 DIIS: error= 2.24D-05 at cycle   6 NSaved=   6.
 NSaved= 6 IEnMin= 6 EnMin= -456.140940991292     IErMin= 6 ErrMin= 2.24D-05
 ErrMax= 2.24D-05  0.00D+00 EMaxC= 1.00D-01 BMatC= 5.81D-08 BMatP= 1.05D-06
 IDIUse=1 WtCom= 1.00D+00 WtEn= 0.00D+00
 Coeff-Com:  0.557D-03-0.213D-01 0.651D-04 0.117D+00 0.291D+00 0.612D+00
 Coeff:      0.557D-03-0.213D-01 0.651D-04 0.117D+00 0.291D+00 0.612D+00
 Gap=     0.328 Goal=   None    Shift=    0.000
 RMSDP=4.32D-06 MaxDP=1.80D-04 DE=-9.08D-07 OVMax= 5.46D-05

 Cycle   7  Pass 1  IDiag  1:
 E= -456.140941040906     Delta-E=       -0.000000049614 Rises=F Damp=F
 DIIS: error= 6.78D-06 at cycle   7 NSaved=   7.
 NSaved= 7 IEnMin= 7 EnMin= -456.140941040906     IErMin= 7 ErrMin= 6.78D-06
 ErrMax= 6.78D-06  0.00D+00 EMaxC= 1.00D-01 BMatC= 6.14D-09 BMatP= 5.81D-08
 IDIUse=1 WtCom= 1.00D+00 WtEn= 0.00D+00
 Coeff-Com:  0.360D-03-0.554D-02-0.316D-02 0.141D-01 0.546D-01 0.268D+00
 Coeff-Com:  0.672D+00
 Coeff:      0.360D-03-0.554D-02-0.316D-02 0.141D-01 0.546D-01 0.268D+00
 Coeff:      0.672D+00
 Gap=     0.328 Goal=   None    Shift=    0.000
 RMSDP=2.37D-06 MaxDP=6.32D-05 DE=-4.96D-08 OVMax= 3.53D-05

 Cycle   8  Pass 1  IDiag  1:
 E= -456.140941045646     Delta-E=       -0.000000004739 Rises=F Damp=F
 DIIS: error= 4.29D-06 at cycle   8 NSaved=   8.
 NSaved= 8 IEnMin= 8 EnMin= -456.140941045646     IErMin= 8 ErrMin= 4.29D-06
 ErrMax= 4.29D-06  0.00D+00 EMaxC= 1.00D-01 BMatC= 1.85D-09 BMatP= 6.14D-09
 IDIUse=1 WtCom= 1.00D+00 WtEn= 0.00D+00
 Coeff-Com:  0.163D-03-0.129D-02-0.204D-02-0.254D-02 0.389D-02 0.936D-01
 Coeff-Com:  0.418D+00 0.490D+00
 Coeff:      0.163D-03-0.129D-02-0.204D-02-0.254D-02 0.389D-02 0.936D-01
 Coeff:      0.418D+00 0.490D+00
 Gap=     0.328 Goal=   None    Shift=    0.000
 RMSDP=1.37D-06 MaxDP=8.12D-05 DE=-4.74D-09 OVMax= 1.02D-05

 Cycle   9  Pass 1  IDiag  1:
 E= -456.140941047126     Delta-E=       -0.000000001480 Rises=F Damp=F
 DIIS: error= 7.35D-07 at cycle   9 NSaved=   9.
 NSaved= 9 IEnMin= 9 EnMin= -456.140941047126     IErMin= 9 ErrMin= 7.35D-07
 ErrMax= 7.35D-07  0.00D+00 EMaxC= 1.00D-01 BMatC= 1.12D-10 BMatP= 1.85D-09
 IDIUse=1 WtCom= 1.00D+00 WtEn= 0.00D+00
 Coeff-Com:  0.411D-05 0.639D-03-0.479D-03-0.490D-02-0.108D-01-0.121D-01
 Coeff-Com:  0.763D-01 0.212D+00 0.739D+00
 Coeff:      0.411D-05 0.639D-03-0.479D-03-0.490D-02-0.108D-01-0.121D-01
 Coeff:      0.763D-01 0.212D+00 0.739D+00
[...]
 --------------------------------------------------------------------------------
 Lowest energy point so far.  Saving SCF results.
 GradGradGradGradGradGradGradGradGradGradGradGradGradGradGradGradGradGrad

 Largest change from initial coordinates is atom    3       0.109 Angstoms.
 Leave Link  103 at Wed Sep  3 14:20:05 2025, MaxMem=  8053063680 cpu:         0.5
 (Enter /nexus/posix0/bmm/home/sucerqdl/sw/g09/l202.exe)
                          Input orientation:                          
 ---------------------------------------------------------------------
 Center     Atomic      Atomic             Coordinates (Angstroms)
 Number     Number       Type             X           Y           Z
 ---------------------------------------------------------------------
      1          6           0       -0.003943   -0.040648   -0.000035
      2          1           0        0.020681    1.054909   -0.000139
      3          1           0       -0.518865   -0.409229   -0.892822
      4          1           0       -0.518849   -0.409057    0.892833
      5          6           0        1.441290   -0.705567    0.000013
      6          8           0        1.486922   -1.952149    0.000107
      7          7           0        2.640583    0.006301   -0.000044
      8          1           0        2.681472    1.017736   -0.000122
      9          6           0        3.940427   -0.731727   -0.000008
     10          1           0        3.962992   -1.389630   -0.881393
     11          1           0        3.962974   -1.389565    0.881425
     12          6           0        5.249684    0.152426   -0.000041
     13          8           0        5.185714    1.391023   -0.000121
     14          7           0        6.446174   -0.557660    0.000017
     15          1           0        6.364673   -1.566459    0.000086
     16          6           0        7.881753   -0.043703   -0.000015
     17          1           0        8.390467   -0.398898   -0.901843
     18          1           0        7.837702    1.049465   -0.000037
     19          1           0        8.390487   -0.398861    0.901817
 ---------------------------------------------------------------------
                    Distance matrix (angstroms):
                    1          2          3          4          5
     1  C    0.000000
     2  H    1.095833   0.000000
     3  H    1.094562   1.797690   0.000000
     4  H    1.094562   1.797689   1.785655   0.000000
     5  C    1.590854   2.262168   2.174208   2.174210   0.000000
     6  O    2.424153   3.345484   2.683488   2.683507   1.247417
     7  N    2.644943   2.821961   3.309355   3.309344   1.394653
     8  H    2.886457   2.661051   3.615978   3.615959   2.123163
     9  C    4.004453   4.307723   4.559211   4.559213   2.499274
    10  H    4.281719   4.721673   4.587849   4.918973   2.757499
    11  H    4.281703   4.721683   4.918932   4.587839   2.757468
    12  C    5.257174   5.306313   5.864186   5.864167   3.903846
    13  O    5.383514   5.175958   6.048143   6.048114   4.291433
    14  N    6.470805   6.624752   7.023600   7.023585   5.007068
    15  H    6.548845   6.864241   7.037013   7.037005   4.998082
    16  C    7.885697   7.937468   8.455832   8.455813   6.474382
    17  H    8.450309   8.542830   8.909342   9.088282   7.014160
    18  H    7.917054   7.817023   8.529775   8.529739   6.632814
    19  H    8.450332   8.542870   9.088311   8.909346   7.014175
                    6          7          8          9         10
     6  O    0.000000
     7  N    2.272985   0.000000
     8  H    3.201120   1.012261   0.000000
     9  C    2.740277   1.494751   2.155363   0.000000
    10  H    2.687823   2.115222   2.866067   1.100084   0.000000
    11  H    2.687761   2.115219   2.866090   1.100084   1.762818
    12  C    4.311336   2.613190   2.710069   1.579836   2.193239
    13  O    4.985766   2.897438   2.531910   2.461058   3.162866
    14  N    5.151580   3.847152   4.081036   2.511786   2.763196
    15  H    4.892976   4.042576   4.499336   2.563931   2.564438
    16  C    6.673532   5.241408   5.307501   4.000928   4.236158
    17  H    7.133375   5.834260   5.950846   4.552684   4.537015
    18  H    7.024393   5.300777   5.156327   4.285020   4.662548
    19  H    7.133372   5.834287   5.950890   4.552705   4.874851
                   11         12         13         14         15
    11  H    0.000000
    12  C    2.193249   0.000000
    13  O    3.162892   1.240248   0.000000
    14  N    2.763191   1.391334   2.320803   0.000000
    15  H    2.564411   2.048845   3.183809   1.012085   0.000000
    16  C    4.236166   2.639366   3.054024   1.524808   2.149492
    17  H    4.874849   3.313868   3.779863   2.149147   2.506096
    18  H    4.662549   2.739072   2.673893   2.125842   3.002145
    19  H    4.537045   3.313896   3.779914   2.149143   2.506058
                   16         17         18         19
    16  C    0.000000
    17  H    1.094645   0.000000
    18  H    1.094055   1.793477   0.000000
    19  H    1.094645   1.803660   1.793477   0.000000
 Stoichiometry    C5H10N2O2
 Framework group  C1[X(C5H10N2O2)]
 Deg. of freedom    51
 Full point group                 C1      NOp   1
 RotChk:  IX=0 Diff= 6.48D-16
 Largest Abelian subgroup         C1      NOp   1
 Largest concise Abelian subgroup C1      NOp   1
                         Standard orientation:                         
 ---------------------------------------------------------------------
 Center     Atomic      Atomic             Coordinates (Angstroms)
 Number     Number       Type             X           Y           Z
 ---------------------------------------------------------------------
      1          6           0       -3.790078    0.668662   -0.000020
      2          1           0       -3.641940    1.754436   -0.000124
      3          1           0       -4.343316    0.360564   -0.892808
      4          1           0       -4.343281    0.360733    0.892847
      5          6           0       -2.429142   -0.155152    0.000028
      6          8           0       -2.524523   -1.398918    0.000122
      7          7           0       -1.157156    0.416783   -0.000030
      8          1           0       -1.002352    1.417137   -0.000108
      9          6           0        0.051067   -0.463261    0.000006
     10          1           0       -0.000780   -1.119506   -0.881379
     11          1           0       -0.000790   -1.119439    0.881440
     12          6           0        1.451763    0.267445   -0.000026
     13          8           0        1.528021    1.505346   -0.000107
     14          7           0        2.560447   -0.573169    0.000032
     15          1           0        2.365588   -1.566319    0.000100
     16          6           0        4.044868   -0.224552    0.000000
     17          1           0        4.510234   -0.634904   -0.901829
     18          1           0        4.124501    0.866601   -0.000023
     19          1           0        4.510258   -0.634869    0.901831
 ---------------------------------------------------------------------
 Rotational constants (GHZ):      5.0204693      0.6045051      0.5451412
 Leave Link  202 at Wed Sep  3 14:20:05 2025, MaxMem=  8053063680 cpu:         0.0
 (Enter /nexus/posix0/bmm/home/sucerqdl/sw/g09/l601.exe)
 Copying SCF densities to generalized density rwf, IOpCl= 0 IROHF=0.

 **********************************************************************

            Population analysis using the SCF density.

 **********************************************************************

 Orbital symmetries:
       Occupied  (A) (A) (A) (A) (A) (A) (A) (A) (A) (A) (A) (A)
                 (A) (A) (A) (A) (A) (A) (A) (A) (A) (A) (A) (A)
                 (A) (A) (A) (A) (A) (A) (A) (A) (A) (A) (A)
       Virtual   (A) (A) (A) (A) (A) (A) (A) (A) (A) (A) (A) (A)
                 (A) (A) (A) (A) (A) (A) (A) (A) (A) (A) (A) (A)
                 (A) (A) (A) (A) (A) (A) (A) (A) (A) (A) (A) (A)
                 (A) (A) (A) (A) (A) (A) (A) (A) (A) (A) (A) (A)
                 (A) (A) (A) (A) (A) (A) (A) (A) (A) (A) (A) (A)
                 (A) (A) (A) (A) (A) (A) (A) (A) (A) (A) (A) (A)
                 (A) (A) (A) (A) (A) (A) (A) (A) (A) (A) (A) (A)
                 (A) (A) (A) (A) (A) (A) (A) (A) (A) (A) (A) (A)
                 (A) (A) (A) (A) (A) (A)
 The electronic state is 1-A.
 Alpha  occ. eigenvalues --  -19.54032 -19.51960 -14.72648 -14.71649 -10.62639
 Alpha  occ. eigenvalues --  -10.61001 -10.54154 -10.52916 -10.48989  -1.15363
 Alpha  occ. eigenvalues --   -1.13685  -1.01044  -0.99736  -0.83104  -0.80171
 Alpha  occ. eigenvalues --   -0.76338  -0.65520  -0.64812  -0.59215  -0.53897
 Alpha  occ. eigenvalues --   -0.52937  -0.52811  -0.50800  -0.50555  -0.48687
 Alpha  occ. eigenvalues --   -0.47064  -0.45292  -0.45016  -0.43835  -0.43778
 Alpha  occ. eigenvalues --   -0.40247  -0.32138  -0.31255  -0.29897  -0.29662
 Alpha virt. eigenvalues --    0.03110   0.03268   0.04231   0.04602   0.04986
 Alpha virt. eigenvalues --    0.06714   0.06880   0.08061   0.08908   0.09091
 Alpha virt. eigenvalues --    0.10095   0.10908   0.11321   0.12037   0.13153
 Alpha virt. eigenvalues --    0.13303   0.14384   0.15769   0.15942   0.16738
 Alpha virt. eigenvalues --    0.17507   0.18562   0.20428   0.20545   0.20891
 Alpha virt. eigenvalues --    0.22134   0.22842   0.23445   0.24113   0.24883
 Alpha virt. eigenvalues --    0.25676   0.26070   0.27089   0.27294   0.28647
 Alpha virt. eigenvalues --    0.28652   0.29514   0.30067   0.31390   0.31609
 Alpha virt. eigenvalues --    0.32115   0.33534   0.35259   0.36177   0.36448
 Alpha virt. eigenvalues --    0.38353   0.38529   0.39473   0.41298   0.42460
 Alpha virt. eigenvalues --    0.45188   0.46078   0.46940   0.49447   0.53822
 Alpha virt. eigenvalues --    0.56690   0.68388   0.69936   0.70111   0.71370
 Alpha virt. eigenvalues --    0.71878   0.73751   0.77397   0.78668   0.79343
 Alpha virt. eigenvalues --    0.82259   0.85739   0.86481   0.91559   0.94205
 Alpha virt. eigenvalues --    0.98245   0.98493   1.01446   1.04393   1.10436
 Alpha virt. eigenvalues --    1.11826   1.12258   1.12508   1.14312   1.16982
 Alpha virt. eigenvalues --    1.18213   1.19632   1.21251   1.24181   1.26656
 Alpha virt. eigenvalues --    1.30401   1.34631   1.36021   1.37119   1.37568
 Alpha virt. eigenvalues --    1.43474   1.44981   1.49151   1.50157   1.51816
 Alpha virt. eigenvalues --    1.56294   1.59386   1.65951   1.71655   1.86099
 Alpha virt. eigenvalues --    2.08166   2.14837
          Condensed to atoms (all electrons):
               1          2          3          4          5          6
     1  C    6.606725   0.363136   0.421769   0.421764  -0.465828  -0.119029
     2  H    0.363136   0.529155  -0.026242  -0.026242  -0.048792   0.006913
     3  H    0.421769  -0.026242   0.465318  -0.021329  -0.063398  -0.005262
     4  H    0.421764  -0.026242  -0.021329   0.465318  -0.063394  -0.005261
     5  C   -0.465828  -0.048792  -0.063398  -0.063394   5.996446   0.442954
     6  O   -0.119029   0.006913  -0.005262  -0.005261   0.442954   8.501315
     7  N   -0.317027   0.009263   0.001743   0.001742  -0.145330  -0.238053
     8  H    0.011179   0.000523   0.000028   0.000028   0.022155   0.004732
     9  C   -0.308873   0.000454  -0.005612  -0.005612  -0.952951  -0.050164
    10  H   -0.001728  -0.000001   0.000023  -0.000008   0.000790   0.001230
    11  H   -0.001727  -0.000001  -0.000008   0.000023   0.000790   0.001229
    12  C    0.152978   0.000105  -0.000774  -0.000774   0.566775   0.020991
    13  O   -0.000929  -0.000006   0.000003   0.000003   0.010825  -0.000371
    14  N    0.000544   0.000026  -0.000003  -0.000003   0.019851  -0.003159
    15  H    0.000097   0.000000   0.000000   0.000000   0.001453   0.000126
    16  C    0.000993   0.000009   0.000000   0.000000   0.008793  -0.000479
    17  H    0.000003   0.000000   0.000000   0.000000   0.000039   0.000000
    18  H   -0.000005   0.000000   0.000000   0.000000  -0.000173   0.000001
    19  H    0.000003   0.000000   0.000000   0.000000   0.000039   0.000000
               7          8          9         10         11         12
     1  C   -0.317027   0.011179  -0.308873  -0.001728  -0.001727   0.152978
     2  H    0.009263   0.000523   0.000454  -0.000001  -0.000001   0.000105
     3  H    0.001743   0.000028  -0.005612   0.000023  -0.000008  -0.000774
     4  H    0.001742   0.000028  -0.005612  -0.000008   0.000023  -0.000774
     5  C   -0.145330   0.022155  -0.952951   0.000790   0.000790   0.566775
     6  O   -0.238053   0.004732  -0.050164   0.001230   0.001229   0.020991
     7  N    7.899730   0.263007   0.304823  -0.050582  -0.050581  -0.160235
     8  H    0.263007   0.300360  -0.084287   0.002050   0.002050   0.040937
     9  C    0.304823  -0.084287  12.286010   0.337279   0.337261  -4.323788
    10  H   -0.050582   0.002050   0.337279   0.489218  -0.037117  -0.003875
    11  H   -0.050581   0.002050   0.337261  -0.037117   0.489214  -0.003858
    12  C   -0.160235   0.040937  -4.323788  -0.003875  -0.003858   8.281901
    13  O    0.018563   0.008666   0.086274   0.000559   0.000559   0.227750
    14  N    0.015138   0.003788  -0.844492   0.015913   0.015914   0.483854
    15  H    0.000577  -0.000011   0.031174  -0.000275  -0.000275  -0.024193
    16  C    0.002807   0.001202  -0.246193   0.003795   0.003796  -0.008648
    17  H   -0.000045   0.000000   0.007812   0.000017  -0.000006  -0.003355
    18  H   -0.000119   0.000000  -0.009848  -0.000007  -0.000007  -0.008489
    19  H   -0.000045   0.000000   0.007814  -0.000006   0.000017  -0.003356
              13         14         15         16         17         18
     1  C   -0.000929   0.000544   0.000097   0.000993   0.000003  -0.000005
     2  H   -0.000006   0.000026   0.000000   0.000009   0.000000   0.000000
     3  H    0.000003  -0.000003   0.000000   0.000000   0.000000   0.000000
     4  H    0.000003  -0.000003   0.000000   0.000000   0.000000   0.000000
     5  C    0.010825   0.019851   0.001453   0.008793   0.000039  -0.000173
     6  O   -0.000371  -0.003159   0.000126  -0.000479   0.000000   0.000001
     7  N    0.018563   0.015138   0.000577   0.002807  -0.000045  -0.000119
     8  H    0.008666   0.003788  -0.000011   0.001202   0.000000   0.000000
     9  C    0.086274  -0.844492   0.031174  -0.246193   0.007812  -0.009848
    10  H    0.000559   0.015913  -0.000275   0.003795   0.000017  -0.000007
    11  H    0.000559   0.015914  -0.000275   0.003796  -0.000006  -0.000007
    12  C    0.227750   0.483854  -0.024193  -0.008648  -0.003355  -0.008489
    13  O    8.499229  -0.234706   0.006682  -0.037589   0.000580   0.006331
    14  N   -0.234706   7.787626   0.274518   0.189388  -0.048161  -0.051811
    15  H    0.006682   0.274518   0.359873  -0.024196  -0.001117   0.002664
    16  C   -0.037589   0.189388  -0.024196   5.333105   0.386116   0.419304
    17  H    0.000580  -0.048161  -0.001117   0.386116   0.511554  -0.022940
    18  H    0.006331  -0.051811   0.002664   0.419304  -0.022940   0.443571
    19  H    0.000580  -0.048158  -0.001118   0.386113  -0.035434  -0.022940
              19
     1  C    0.000003
     2  H    0.000000
     3  H    0.000000
     4  H    0.000000
     5  C    0.000039
     6  O    0.000000
     7  N   -0.000045
     8  H    0.000000
     9  C    0.007814
    10  H   -0.000006
    11  H    0.000017
    12  C   -0.003356
    13  O    0.000580
    14  N   -0.048158
    15  H   -0.001118
    16  C    0.386113
    17  H   -0.035434
    18  H   -0.022940
    19  H    0.511554
 Mulliken charges:
               1
     1  C   -0.764044
     2  H    0.191700
     3  H    0.233745
     4  H    0.233745
     5  C    0.668956
     6  O   -0.557711
     7  N   -0.555377
     8  H    0.423590
     9  C   -0.567082
    10  H    0.242726
    11  H    0.242727
    12  C    0.766053
    13  O   -0.593003
    14  N   -0.576070
    15  H    0.374020
    16  C   -0.418316
    17  H    0.204937
    18  H    0.244468
    19  H    0.204935
 Sum of Mulliken charges =   0.00000
 Mulliken charges with hydrogens summed into heavy atoms:
               1
     1  C   -0.104853
     5  C    0.668956
     6  O   -0.557711
     7  N   -0.131787
     9  C   -0.081630
    12  C    0.766053
    13  O   -0.593003
    14  N   -0.202049
    16  C    0.236024
 Electronic spatial extent (au):  <R**2>=           2016.4062
 Charge=              0.0000 electrons
 Dipole moment (field-independent basis, Debye):
    X=              2.5693    Y=             -0.3899    Z=             -0.0001  Tot=              2.5987
 Quadrupole moment (field-independent basis, Debye-Ang):
   XX=            -42.9005   YY=            -61.5800   ZZ=            -55.1268
   XY=            -18.0376   XZ=              0.0012   YZ=              0.0005
 Traceless Quadrupole moment (field-independent basis, Debye-Ang):
   XX=             10.3019   YY=             -8.3776   ZZ=             -1.9243
   XY=            -18.0376   XZ=              0.0012   YZ=              0.0005
 Octapole moment (field-independent basis, Debye-Ang**2):
  XXX=             43.3701  YYY=             -1.4728  ZZZ=              0.0003  XYY=             11.3078
  XXY=             13.3216  XXZ=             -0.0010  XZZ=             -1.2514  YZZ=             -1.9466
  YYZ=             -0.0002  XYZ=             -0.0012
 Hexadecapole moment (field-independent basis, Debye-Ang**3):
 XXXX=          -1956.7257 YYYY=           -306.7497 ZZZZ=            -74.3529 XXXY=            -93.8227
 XXXZ=              0.0122 YYYX=            -52.2113 YYYZ=              0.0081 ZZZX=              0.0045
 ZZZY=              0.0079 XXYY=           -467.3185 XXZZ=           -381.6209 YYZZ=            -62.4036
 XXYZ=              0.0068 YYXZ=              0.0070 ZZXY=              2.4264
 N-N= 4.333570734698D+02 E-N=-1.931453690299D+03  KE= 4.529699276626D+02
 No NMR shielding tensors so no spin-rotation constants.
 Leave Link  601 at Wed Sep  3 14:20:05 2025, MaxMem=  8053063680 cpu:         1.3
 (Enter /nexus/posix0/bmm/home/sucerqdl/sw/g09/l9999.exe)
 1\1\GINC-SLURM-ORBIT-CPU1\FOpt\RBMK\6-31+G\C5H10N2O2\SUCERQDL\03-Sep-2
 025\0\\#P bmk/6-31+g opt(modredun,calcfc)\\Gaussian input prepared by 
 ASE\\0,1\C,-0.0039431885,-0.0406481183,-0.000034794\H,0.0206805883,1.0
 549086358,-0.0001388242\H,-0.5188649505,-0.4092286535,-0.892822031\H,-
 0.518848718,-0.4090569156,0.8928329857\C,1.441290392,-0.7055668448,0.0
 000133848\O,1.4869218859,-1.9521493294,0.0001072748\N,2.6405828238,0.0
 063010038,-0.0000441271\H,2.6814721095,1.017735817,-0.0001222593\C,3.9
 404270335,-0.7317271337,-0.0000080792\H,3.9629918621,-1.389630085,-0.8
 813930617\H,3.9629741988,-1.3895650755,0.8814252619\C,5.2496842244,0.1
 524261925,-0.0000405277\O,5.1857136378,1.3910230115,-0.0001212982\N,6.
 4461738572,-0.5576603219,0.0000171976\H,6.3646726466,-1.5664585561,0.0
 00086097\C,7.8817527449,-0.043702869,-0.0000145204\H,8.3904666798,-0.3
 988980358,-0.9018431936\H,7.8377018913,1.0494651361,-0.0000370556\H,8.
 3904870598,-0.3988610966,0.9018169155\\Version=ES64L-G09RevD.01\State=
 1-A\HF=-456.1409478\RMSD=1.885e-09\RMSF=7.045e-03\Dipole=1.021683,-0.0
 383138,-0.0000236\Quadrupole=10.4905858,-9.0598796,-1.4307062,-11.5110
 002,0.0008638,0.0005053\PG=C01 [X(C5H10N2O2)]\\@


 WE MIGHT AS WELL ATTEMPT TO INTRODUCE A NEW PLANET 
 INTO THE SOLAR SYSTEM, OR TO ANNIHILATE ONE ALREADYIN EXISTENCE, 
 AS TO CREATE OR DESTROY A PARTICLE OF HYDROGEN.
 ALL THE CHANGES WE CAN PRODUCE CONSIST IN SEPARATING PARTICLES
 THAT ARE IN A STATE OF ... COMBINATION, AND JOINING 
 THOSE THAT WERE PREVIOUSLY AT A DISTANCE.

                                    -- JOHN DALTON, 1810
 Job cpu time:       0 days  0 hours 11 minutes 51.1 seconds.
 File lengths (MBytes):  RWF=    132 Int=      0 D2E=      0 Chk=      3 Scr=      2
 Normal termination of Gaussian 09 at Wed Sep  3 14:20:05 2025.
