 Entering Gaussian System, Link 0=g09
 Input=G-stretched01.com
 Output=G-stretched01.log
 Initial command:
 /nexus/posix0/bmm/home/sucerqdl/sw/g09/l1.exe "/nexus/posix0/bmm/home/sucerqdl/sw/g09/g09_scratch/Gau-2867132.inp" -scrdir="/nexus/posix0/bmm/home/sucerqdl/sw/g09/g09_scratch/"
 Entering Link 1 = /nexus/posix0/bmm/home/sucerqdl/sw/g09/l1.exe PID=   2867134.
  
 Copyright (c) 1988,1990,1992,1993,1995,1998,2003,2009,2013,
            Gaussian, Inc.  All Rights Reserved.
  
 This is part of the Gaussian(R) 09 program.  It is based on
 the Gaussian(R) 03 system (copyright 2003, Gaussian, Inc.),
 the Gaussian(R) 98 system (copyright 1998, Gaussian, Inc.),
 the Gaussian(R) 94 system (copyright 1995, Gaussian, Inc.),
 the Gaussian 92(TM) system (copyright 1992, Gaussian, Inc.),
 the Gaussian 90(TM) system (copyright 1990, Gaussian, Inc.),
 the Gaussian 88(TM) system (copyright 1988, Gaussian, Inc.),
 the Gaussian 86(TM) system (copyright 1986, Carnegie Mellon
 University), and the Gaussian 82(TM) system (copyright 1983,
 Carnegie Mellon University). Gaussian is a federally registered
 trademark of Gaussian, Inc.
  
 This software contains proprietary and confidential information,
 including trade secrets, belonging to Gaussian, Inc.
  
 This software is provided under written license and may be
 used, copied, transmitted, or stored only in accord with that
 written license.
  
 The following legend is applicable only to US Government
 contracts under FAR:
  
                    RESTRICTED RIGHTS LEGEND
  
 Use, reproduction and disclosure by the US Government is
 subject to restrictions as set forth in subparagraphs (a)
 and (c) of the Commercial Computer Software - Restricted
 Rights clause in FAR 52.227-19.
  
 Gaussian, Inc.
 340 Quinnipiac St., Bldg. 40, Wallingford CT 06492
  
  
 ---------------------------------------------------------------
 Warning -- This program may not be used in any manner that
 competes with the business of Gaussian, Inc. or will provide
 assistance to any competitor of Gaussian, Inc.  The licensee
 of this program is prohibited from giving any competitor of
 Gaussian, Inc. access to this program.  By using this program,
 the user acknowledges that Gaussian, Inc. is engaged in the
 business of creating and licensing software in the field of
 computational chemistry and represents and warrants to the
 licensee that it is not a competitor of Gaussian, Inc. and that
 it will not use this program in any manner prohibited above.
 ---------------------------------------------------------------
  

 Cite this work as:
 Gaussian 09, Revision D.01,
 M. J. Frisch, G. W. Trucks, H. B. Schlegel, G. E. Scuseria, 
 M. A. Robb, J. R. Cheeseman, G. Scalmani, V. Barone, B. Mennucci, 
 G. A. Petersson, H. Nakatsuji, M. Caricato, X. Li, H. P. Hratchian, 
 A. F. Izmaylov, J. Bloino, G. Zheng, J. L. Sonnenberg, M. Hada, 
 M. Ehara, K. Toyota, R. Fukuda, J. Hasegawa, M. Ishida, T. Nakajima, 
 Y. Honda, O. Kitao, H. Nakai, T. Vreven, J. A. Montgomery, Jr., 
 J. E. Peralta, F. Ogliaro, M. Bearpark, J. J. Heyd, E. Brothers, 
 K. N. Kudin, V. N. Staroverov, T. Keith, R. Kobayashi, J. Normand, 
 K. Raghavachari, A. Rendell, J. C. Burant, S. S. Iyengar, J. Tomasi, 
 M. Cossi, N. Rega, J. M. Millam, M. Klene, J. E. Knox, J. B. Cross, 
 V. Bakken, C. Adamo, J. Jaramillo, R. Gomperts, R. E. Stratmann, 
 O. Yazyev, A. J. Austin, R. Cammi, C. Pomelli, J. W. Ochterski, 
 R. L. Martin, K. Morokuma, V. G. Zakrzewski, G. A. Voth, 
 P. Salvador, J. J. Dannenberg, S. Dapprich, A. D. Daniels, 
 O. Farkas, J. B. Foresman, J. V. Ortiz, J. Cioslowski, 
 and D. J. Fox, Gaussian, Inc., Wallingford CT, 2013.
 
 ******************************************
 Gaussian 09:  ES64L-G09RevD.01 24-Apr-2013
                 3-Sep-2025 
 ******************************************
 %mem=60GB
 %NProcShared=16
 Will use up to   16 processors via shared memory.
 %chk=G-stretched01
 ----------------------------------
 #P bmk/6-31+g opt(modredun,calcfc)
 ----------------------------------
 1/10=4,14=-1,18=120,19=15,26=3,38=1/1,3;
 2/9=110,12=2,17=6,18=5,40=1/2;
 3/5=1,6=6,7=10,11=2,16=1,25=1,30=1,71=2,74=-34,140=1/1,2,3;
 4//1;
 5/5=2,38=5/2;
 8/6=4,10=90,11=11/1;
 11/6=1,8=1,9=11,15=111,16=1/1,2,10;
 10/6=1,13=1/2;
 6/7=2,8=2,9=2,10=2,28=1/1;
 7/10=1,18=20,25=1/1,2,3,16;
 1/10=4,14=-1,18=20,19=15,26=3/3(2);
 2/9=110/2;
 99//99;
 2/9=110/2;
 3/5=1,6=6,7=10,11=2,16=1,25=1,30=1,71=1,74=-34/1,2,3;
 4/5=5,16=3,69=1/1;
 5/5=2,38=5/2;
 7//1,2,3,16;
 1/14=-1,18=20,19=15,26=3/3(-5);
 2/9=110/2;
 6/7=2,8=2,9=2,10=2,19=2,28=1/1;
 99/9=1/99;
 Leave Link    1 at Wed Sep  3 14:15:25 2025, MaxMem=  8053063680 cpu:         1.2
 (Enter /nexus/posix0/bmm/home/sucerqdl/sw/g09/l101.exe)
 ------------------------------
 Gaussian input prepared by ASE
 ------------------------------
 Symbolic Z-matrix:
 Charge =  0 Multiplicity = 1
 C                     0.        0.        0. 
 H                     0.28905  -1.05892  -0.00016 
 H                    -0.62789   0.21211   0.88571 
 H                    -0.62815   0.21233  -0.88549 
 C                     1.23409   0.93107  -0.00006 
 O                     1.10353   2.17274  -0.00006 
 N                     2.49343   0.34552  -0.00009 
 H                     2.63005  -0.65825  -0.00005 
 C                     3.735     1.14325  -0.00007 
 H                     3.76247   1.79845   0.88443 
 H                     3.76253   1.79846  -0.88456 
 C                     4.97246   0.19926  -0.00004 
 O                     4.82659  -1.03891  -0.00008 
 N                     6.22387   0.79238  0. 
 H                     6.29163   1.79921   0.00005 
 C                     7.4857    0.        0. 
 H                     8.36729   0.67808  -0.00052 
 H                     7.52831  -0.64219   0.88797 
 H                     7.52775  -0.64288  -0.88749 
 
 The following ModRedundant input section has been read:
 B       1      16 F                                                           
 
 NAtoms=     19 NQM=       19 NQMF=       0 NMMI=      0 NMMIF=      0
                NMic=       0 NMicF=      0.
                    Isotopes and Nuclear Properties:
 (Nuclear quadrupole moments (NQMom) in fm**2, nuclear magnetic moments (NMagM)
  in nuclear magnetons)

  Atom         1           2           3           4           5           6           7           8           9          10
 IAtWgt=          12           1           1           1          12          16          14           1          12           1
 AtmWgt=  12.0000000   1.0078250   1.0078250   1.0078250  12.0000000  15.9949146  14.0030740   1.0078250  12.0000000   1.0078250
 NucSpn=           0           1           1           1           0           0           2           1           0           1
 AtZEff=   0.0000000   0.0000000   0.0000000   0.0000000   0.0000000   0.0000000   0.0000000   0.0000000   0.0000000   0.0000000
 NQMom=    0.0000000   0.0000000   0.0000000   0.0000000   0.0000000   0.0000000   2.0440000   0.0000000   0.0000000   0.0000000
 NMagM=    0.0000000   2.7928460   2.7928460   2.7928460   0.0000000   0.0000000   0.4037610   2.7928460   0.0000000   2.7928460
 AtZNuc=   6.0000000   1.0000000   1.0000000   1.0000000   6.0000000   8.0000000   7.0000000   1.0000000   6.0000000   1.0000000

  Atom        11          12          13          14          15          16          17          18          19
 IAtWgt=           1          12          16          14           1          12           1           1           1
 AtmWgt=   1.0078250  12.0000000  15.9949146  14.0030740   1.0078250  12.0000000   1.0078250   1.0078250   1.0078250
 NucSpn=           1           0           0           2           1           0           1           1           1
 AtZEff=   0.0000000   0.0000000   0.0000000   0.0000000   0.0000000   0.0000000   0.0000000   0.0000000   0.0000000
 NQMom=    0.0000000   0.0000000   0.0000000   2.0440000   0.0000000   0.0000000   0.0000000   0.0000000   0.0000000
 NMagM=    2.7928460   0.0000000   0.0000000   0.4037610   2.7928460   0.0000000   2.7928460   2.7928460   2.7928460
 AtZNuc=   1.0000000   6.0000000   8.0000000   7.0000000   1.0000000   6.0000000   1.0000000   1.0000000   1.0000000
 Leave Link  101 at Wed Sep  3 14:15:26 2025, MaxMem=  8053063680 cpu:         6.0
 (Enter /nexus/posix0/bmm/home/sucerqdl/sw/g09/l103.exe)

 GradGradGradGradGradGradGradGradGradGradGradGradGradGradGradGradGradGrad
 Berny optimization.
 Initialization pass.
                           ----------------------------
                           !    Initial Parameters    !
                           ! (Angstroms and Degrees)  !
 --------------------------                            --------------------------
 ! Name  Definition              Value          Derivative Info.                !
 --------------------------------------------------------------------------------
 ! R1    R(1,2)                  1.0977         calculate D2E/DX2 analytically  !
 ! R2    R(1,3)                  1.1062         calculate D2E/DX2 analytically  !
 ! R3    R(1,4)                  1.1062         calculate D2E/DX2 analytically  !
 ! R4    R(1,5)                  1.5459         calculate D2E/DX2 analytically  !
 ! R5    R(1,16)                 7.4857         frozen, calculate D2E/DX2 analyt!
 ! R6    R(5,6)                  1.2485         calculate D2E/DX2 analytically  !
 ! R7    R(5,7)                  1.3888         calculate D2E/DX2 analytically  !
 ! R8    R(7,8)                  1.013          calculate D2E/DX2 analytically  !
 ! R9    R(7,9)                  1.4758         calculate D2E/DX2 analytically  !
 ! R10   R(9,10)                 1.1011         calculate D2E/DX2 analytically  !
 ! R11   R(9,11)                 1.1011         calculate D2E/DX2 analytically  !
 ! R12   R(9,12)                 1.5564         calculate D2E/DX2 analytically  !
 ! R13   R(12,13)                1.2467         calculate D2E/DX2 analytically  !
 ! R14   R(12,14)                1.3848         calculate D2E/DX2 analytically  !
 ! R15   R(14,15)                1.0091         calculate D2E/DX2 analytically  !
 ! R16   R(14,16)                1.49           calculate D2E/DX2 analytically  !
 ! R17   R(16,17)                1.1122         calculate D2E/DX2 analytically  !
 ! R18   R(16,18)                1.0967         calculate D2E/DX2 analytically  !
 ! R19   R(16,19)                1.0967         calculate D2E/DX2 analytically  !
 ! A1    A(2,1,3)              109.5461         calculate D2E/DX2 analytically  !
 ! A2    A(2,1,4)              109.5467         calculate D2E/DX2 analytically  !
 ! A3    A(2,1,5)              111.7649         calculate D2E/DX2 analytically  !
 ! A4    A(3,1,4)              106.3669         calculate D2E/DX2 analytically  !
 ! A5    A(3,1,5)              109.7344         calculate D2E/DX2 analytically  !
 ! A6    A(4,1,5)              109.7346         calculate D2E/DX2 analytically  !
 ! A7    A(1,5,6)              121.0306         calculate D2E/DX2 analytically  !
 ! A8    A(1,5,7)              118.0305         calculate D2E/DX2 analytically  !
 ! A9    A(6,5,7)              120.9389         calculate D2E/DX2 analytically  !
 ! A10   A(5,7,8)              122.6875         calculate D2E/DX2 analytically  !
 ! A11   A(5,7,9)              122.3421         calculate D2E/DX2 analytically  !
 ! A12   A(8,7,9)              114.9705         calculate D2E/DX2 analytically  !
 ! A13   A(7,9,10)             110.039          calculate D2E/DX2 analytically  !
 ! A14   A(7,9,11)             110.0405         calculate D2E/DX2 analytically  !
 ! A15   A(7,9,12)             109.9404         calculate D2E/DX2 analytically  !
 ! A16   A(10,9,11)            106.892          calculate D2E/DX2 analytically  !
 ! A17   A(10,9,12)            109.9418         calculate D2E/DX2 analytically  !
 ! A18   A(11,9,12)            109.9406         calculate D2E/DX2 analytically  !
 ! A19   A(9,12,13)            120.6193         calculate D2E/DX2 analytically  !
 ! A20   A(9,12,14)            117.3028         calculate D2E/DX2 analytically  !
 ! A21   A(13,12,14)           122.0779         calculate D2E/DX2 analytically  !
 ! A22   A(12,14,15)           119.2096         calculate D2E/DX2 analytically  !
 ! A23   A(12,14,16)           122.5139         calculate D2E/DX2 analytically  !
 ! A24   A(15,14,16)           118.2765         calculate D2E/DX2 analytically  !
 ! A25   A(14,16,17)           110.3072         calculate D2E/DX2 analytically  !
 ! A26   A(14,16,18)           110.1399         calculate D2E/DX2 analytically  !
 ! A27   A(14,16,19)           110.1342         calculate D2E/DX2 analytically  !
 ! A28   A(17,16,18)           109.0618         calculate D2E/DX2 analytically  !
 ! A29   A(17,16,19)           109.0637         calculate D2E/DX2 analytically  !
 ! A30   A(18,16,19)           108.0884         calculate D2E/DX2 analytically  !
 ! D1    D(2,1,5,6)            179.9912         calculate D2E/DX2 analytically  !
 ! D2    D(2,1,5,7)             -0.0098         calculate D2E/DX2 analytically  !
 ! D3    D(3,1,5,6)            -58.2765         calculate D2E/DX2 analytically  !
 ! D4    D(3,1,5,7)            121.7224         calculate D2E/DX2 analytically  !
 ! D5    D(4,1,5,6)             58.258          calculate D2E/DX2 analytically  !
 ! D6    D(4,1,5,7)           -121.743          calculate D2E/DX2 analytically  !
 ! D7    D(1,5,7,8)             -0.0016         calculate D2E/DX2 analytically  !
 ! D8    D(1,5,7,9)           -179.9962         calculate D2E/DX2 analytically  !
 ! D9    D(6,5,7,8)            179.9973         calculate D2E/DX2 analytically  !
 ! D10   D(6,5,7,9)              0.0027         calculate D2E/DX2 analytically  !
 ! D11   D(5,7,9,10)            58.764          calculate D2E/DX2 analytically  !
 ! D12   D(5,7,9,11)           -58.77           calculate D2E/DX2 analytically  !
 ! D13   D(5,7,9,12)           179.9972         calculate D2E/DX2 analytically  !
 ! D14   D(8,7,9,10)          -121.231          calculate D2E/DX2 analytically  !
 ! D15   D(8,7,9,11)           121.235          calculate D2E/DX2 analytically  !
 ! D16   D(8,7,9,12)             0.0022         calculate D2E/DX2 analytically  !
 ! D17   D(7,9,12,13)            0.0022         calculate D2E/DX2 analytically  !
 ! D18   D(7,9,12,14)         -179.9993         calculate D2E/DX2 analytically  !
 ! D19   D(10,9,12,13)         121.2937         calculate D2E/DX2 analytically  !
 ! D20   D(10,9,12,14)         -58.7078         calculate D2E/DX2 analytically  !
 ! D21   D(11,9,12,13)        -121.2904         calculate D2E/DX2 analytically  !
 ! D22   D(11,9,12,14)          58.7081         calculate D2E/DX2 analytically  !
 ! D23   D(9,12,14,15)           0.0025         calculate D2E/DX2 analytically  !
 ! D24   D(9,12,14,16)        -179.9988         calculate D2E/DX2 analytically  !
 ! D25   D(13,12,14,15)       -179.999          calculate D2E/DX2 analytically  !
 ! D26   D(13,12,14,16)         -0.0003         calculate D2E/DX2 analytically  !
 ! D27   D(12,14,16,17)        179.9695         calculate D2E/DX2 analytically  !
 ! D28   D(12,14,16,18)        -59.5913         calculate D2E/DX2 analytically  !
 ! D29   D(12,14,16,19)         59.5316         calculate D2E/DX2 analytically  !
 ! D30   D(15,14,16,17)         -0.0318         calculate D2E/DX2 analytically  !
 ! D31   D(15,14,16,18)        120.4074         calculate D2E/DX2 analytically  !
 ! D32   D(15,14,16,19)       -120.4697         calculate D2E/DX2 analytically  !
 --------------------------------------------------------------------------------
 Trust Radius=3.00D-01 FncErr=1.00D-07 GrdErr=1.00D-06
 Number of steps in this run=     91 maximum allowed number of steps=    114.
 GradGradGradGradGradGradGradGradGradGradGradGradGradGradGradGradGradGrad

 Leave Link  103 at Wed Sep  3 14:15:26 2025, MaxMem=  8053063680 cpu:         0.2
 (Enter /nexus/posix0/bmm/home/sucerqdl/sw/g09/l202.exe)
                          Input orientation:                          
 ---------------------------------------------------------------------
 Center     Atomic      Atomic             Coordinates (Angstroms)
 Number     Number       Type             X           Y           Z
 ---------------------------------------------------------------------
      1          6           0        0.000000    0.000000    0.000000
      2          1           0        0.289054   -1.058924   -0.000164
      3          1           0       -0.627895    0.212111    0.885711
      4          1           0       -0.628154    0.212330   -0.885487
      5          6           0        1.234089    0.931065   -0.000060
      6          8           0        1.103533    2.172743   -0.000061
      7          7           0        2.493429    0.345523   -0.000091
      8          1           0        2.630053   -0.658254   -0.000052
      9          6           0        3.735001    1.143253   -0.000068
     10          1           0        3.762468    1.798454    0.884426
     11          1           0        3.762533    1.798458   -0.884558
     12          6           0        4.972459    0.199260   -0.000042
     13          8           0        4.826594   -1.038914   -0.000084
     14          7           0        6.223866    0.792375   -0.000002
     15          1           0        6.291632    1.799215    0.000047
     16          6           0        7.485697    0.000000    0.000000
     17          1           0        8.367288    0.678079   -0.000520
     18          1           0        7.528308   -0.642189    0.887971
     19          1           0        7.527753   -0.642881   -0.887489
 ---------------------------------------------------------------------
                    Distance matrix (angstroms):
                    1          2          3          4          5
     1  C    0.000000
     2  H    1.097666   0.000000
     3  H    1.106222   1.800305   0.000000
     4  H    1.106232   1.800320   1.771198   0.000000
     5  C    1.545917   2.202986   2.183683   2.183692   0.000000
     6  O    2.436924   3.332724   2.761614   2.761511   1.248523
     7  N    2.517255   2.613760   3.247323   3.247453   1.388811
     8  H    2.711177   2.375040   3.486594   3.486808   2.115338
     9  C    3.906054   4.089515   4.548240   4.548374   2.509897
    10  H    4.262958   4.583854   4.668166   4.992589   2.815560
    11  H    4.263045   4.583868   4.992616   4.668398   2.815624
    12  C    4.976450   4.849465   5.669981   5.670190   3.809324
    13  O    4.937140   4.537584   5.665787   5.666024   4.097183
    14  N    6.274103   6.216857   6.933096   6.933305   4.991704
    15  H    6.543838   6.648301   7.154240   7.154427   5.131513
    16  C    7.485697   7.274132   8.164548   8.164787   6.320560
    17  H    8.394718   8.262872   9.050737   9.050860   7.137684
    18  H    7.607649   7.305427   8.200822   8.390664   6.548353
    19  H    7.607102   7.304739   8.389866   8.200623   6.547904
                    6          7          8          9         10
     6  O    0.000000
     7  N    2.295767   0.000000
     8  H    3.216335   1.013032   0.000000
     9  C    2.825681   1.475762   2.113371   0.000000
    10  H    2.827074   2.122225   2.846064   1.101077   0.000000
    11  H    2.827138   2.122246   2.846102   1.101080   1.768984
    12  C    4.343182   2.483341   2.494432   1.556414   2.191753
    13  O    4.916902   2.712992   2.229281   2.439965   3.156799
    14  N    5.303134   3.757105   3.875541   2.513476   2.802300
    15  H    5.201529   4.066887   4.409797   2.639441   2.679328
    16  C    6.741872   5.004211   4.900058   3.921064   4.228366
    17  H    7.415940   5.883265   5.890810   4.655585   4.821072
    18  H    7.070374   5.207134   4.978127   4.285510   4.487572
    19  H    7.070069   5.206615   4.977474   4.285179   4.824642
                   11         12         13         14         15
    11  H    0.000000
    12  C    2.191740   0.000000
    13  O    3.156771   1.246736   0.000000
    14  N    2.802285   1.384849   2.303474   0.000000
    15  H    2.679341   2.073662   3.193950   1.009117   0.000000
    16  C    4.228338   2.521125   2.854851   1.489992   2.159390
    17  H    4.820844   3.428430   3.935045   2.146467   2.359087
    18  H    4.824902   2.833544   2.871462   2.132614   2.877191
    19  H    4.487430   2.833072   2.870643   2.132537   2.877420
                   16         17         18         19
    16  C    0.000000
    17  H    1.112202   0.000000
    18  H    1.096684   1.799003   0.000000
    19  H    1.096677   1.799018   1.775460   0.000000
 Stoichiometry    C5H10N2O2
 Framework group  C1[X(C5H10N2O2)]
 Deg. of freedom    51
 Full point group                 C1      NOp   1
 Largest Abelian subgroup         C1      NOp   1
 Largest concise Abelian subgroup C1      NOp   1
                         Standard orientation:                         
 ---------------------------------------------------------------------
 Center     Atomic      Atomic             Coordinates (Angstroms)
 Number     Number       Type             X           Y           Z
 ---------------------------------------------------------------------
      1          6           0        3.514867    0.914715    0.000042
      2          1           0        3.101361    1.931516   -0.000122
      3          1           0        4.163607    0.779146    0.885753
      4          1           0        4.163891    0.778960   -0.885445
      5          6           0        2.400865   -0.157133   -0.000018
      6          8           0        2.678844   -1.374317   -0.000019
      7          7           0        1.080584    0.273746   -0.000049
      8          1           0        0.825005    1.254008   -0.000010
      9          6           0       -0.056779   -0.666616   -0.000025
     10          1           0       -0.005764   -1.320405    0.884468
     11          1           0       -0.005829   -1.320417   -0.884516
     12          6           0       -1.398163    0.122761    0.000000
     13          8           0       -1.401283    1.369493   -0.000042
     14          7           0       -2.569738   -0.615627    0.000040
     15          1           0       -2.516720   -1.623351    0.000089
     16          6           0       -3.917205    0.020305    0.000042
     17          1           0       -4.711462   -0.758251   -0.000478
     18          1           0       -4.036241    0.652803    0.888013
     19          1           0       -4.035773    0.653556   -0.887447
 ---------------------------------------------------------------------
 Rotational constants (GHZ):      5.0048393      0.6380960      0.5720214
 Leave Link  202 at Wed Sep  3 14:15:26 2025, MaxMem=  8053063680 cpu:         0.2
 (Enter /nexus/posix0/bmm/home/sucerqdl/sw/g09/l301.exe)
 Standard basis: 6-31+G (6D, 7F)
 Ernie: Thresh=  0.10000D-02 Tol=  0.10000D-05 Strict=F.
 There are   137 symmetry adapted cartesian basis functions of A   symmetry.
 There are   137 symmetry adapted basis functions of A   symmetry.
   137 basis functions,   274 primitive gaussians,   137 cartesian basis functions
    35 alpha electrons       35 beta electrons
       nuclear repulsion energy       439.5183705555 Hartrees.
 IExCor= 3226 DFT=T Ex+Corr=BMK ExCW=0 ScaHFX=  0.420000
 ScaDFX=  1.000000  1.000000  1.000000  1.000000 ScalE2=  1.000000  1.000000
 IRadAn=      0 IRanWt=     -1 IRanGd=            0 ICorTp=0 IEmpDi=  4
 NAtoms=   19 NActive=   19 NUniq=   19 SFac= 1.00D+00 NAtFMM=   60 NAOKFM=F Big=F
 Integral buffers will be    131072 words long.
 Raffenetti 2 integral format.
 Two-electron integral symmetry is turned on.
 Leave Link  301 at Wed Sep  3 14:15:26 2025, MaxMem=  8053063680 cpu:         0.7
 (Enter /nexus/posix0/bmm/home/sucerqdl/sw/g09/l302.exe)
 NPDir=0 NMtPBC=     1 NCelOv=     1 NCel=       1 NClECP=     1 NCelD=      1
         NCelK=      1 NCelE2=     1 NClLst=     1 CellRange=     0.0.
 One-electron integrals computed using PRISM.
 NBasis=   137 RedAO= T EigKep=  2.27D-05  NBF=   137
 NBsUse=   137 1.00D-06 EigRej= -1.00D+00 NBFU=   137
 Precomputing XC quadrature grid using
 IXCGrd= 4 IRadAn=           0 IRanWt=          -1 IRanGd=           0 AccXCQ= 0.00D+00.
 Generated NRdTot=       0 NPtTot=           0 NUsed=           0 NTot=          32
 NSgBfM=   137   137   137   137   137 MxSgAt=    19 MxSgA2=    19.
 Leave Link  302 at Wed Sep  3 14:15:26 2025, MaxMem=  8053063680 cpu:         2.0
 (Enter /nexus/posix0/bmm/home/sucerqdl/sw/g09/l303.exe)
 DipDrv:  MaxL=1.
 Leave Link  303 at Wed Sep  3 14:15:27 2025, MaxMem=  8053063680 cpu:         0.5
 (Enter /nexus/posix0/bmm/home/sucerqdl/sw/g09/l401.exe)
 ExpMin= 4.38D-02 ExpMax= 5.48D+03 ExpMxC= 8.25D+02 IAcc=2 IRadAn=         4 AccDes= 0.00D+00
 Harris functional with IExCor= 1009 and IRadAn=       4 diagonalized for initial guess.
 HarFok:  IExCor= 1009 AccDes= 0.00D+00 IRadAn=         4 IDoV= 1 UseB2=F ITyADJ=14
 ICtDFT=  3500011 ScaDFX=  1.000000  1.000000  1.000000  1.000000
 FoFCou: FMM=F IPFlag=           0 FMFlag=      100000 FMFlg1=           0
         NFxFlg=           0 DoJE=T BraDBF=F KetDBF=T FulRan=T
         wScrn=  0.000000 ICntrl=     500 IOpCl=  0 I1Cent=   200000004 NGrid=           0
         NMat0=    1 NMatS0=      1 NMatT0=    0 NMatD0=    1 NMtDS0=    0 NMtDT0=    0
 Petite list used in FoFCou.
 Harris En= -456.006468134596    
 JPrj=0 DoOrth=F DoCkMO=F.
 Leave Link  401 at Wed Sep  3 14:15:27 2025, MaxMem=  8053063680 cpu:         3.4
 (Enter /nexus/posix0/bmm/home/sucerqdl/sw/g09/l502.exe)
 Closed shell SCF:
 Using DIIS extrapolation, IDIIS=  1040.
 Integral symmetry usage will be decided dynamically.
 Keep R1 ints in memory in canonical form, NReq=46076400.
 IVT=       78102 IEndB=       78102 NGot=  8053063680 MDV=  8008301248
 LenX=  8008301248 LenY=  8008282038
 Requested convergence on RMS density matrix=1.00D-08 within 128 cycles.
 Requested convergence on MAX density matrix=1.00D-06.
 Requested convergence on             energy=1.00D-06.
 No special actions if energy rises.
 FoFCou: FMM=F IPFlag=           0 FMFlag=           0 FMFlg1=           0
         NFxFlg=           0 DoJE=F BraDBF=F KetDBF=F FulRan=T
         wScrn=  0.000000 ICntrl=     600 IOpCl=  0 I1Cent=           0 NGrid=           0
         NMat0=    1 NMatS0=   9453 NMatT0=    0 NMatD0=    1 NMtDS0=    0 NMtDT0=    0
 Symmetry not used in FoFCou.

 Cycle   1  Pass 1  IDiag  1:
 E= -455.923665578734    
 DIIS: error= 3.74D-02 at cycle   1 NSaved=   1.
 NSaved= 1 IEnMin= 1 EnMin= -455.923665578734     IErMin= 1 ErrMin= 3.74D-02
 ErrMax= 3.74D-02  0.00D+00 EMaxC= 1.00D-01 BMatC= 2.60D-01 BMatP= 2.60D-01
 IDIUse=3 WtCom= 6.26D-01 WtEn= 3.74D-01
 Coeff-Com:  0.100D+01
 Coeff-En:   0.100D+01
 Coeff:      0.100D+01
 Gap=     0.322 Goal=   None    Shift=    0.000
 GapD=    0.322 DampG=1.000 DampE=0.500 DampFc=0.5000 IDamp=-1.
 Damping current iteration by 5.00D-01
 RMSDP=3.27D-02 MaxDP=1.83D+00              OVMax= 2.71D-01

 Cycle   2  Pass 1  IDiag  1:
 E= -455.994037347966     Delta-E=       -0.070371769232 Rises=F Damp=T
 DIIS: error= 1.57D-02 at cycle   2 NSaved=   2.
 NSaved= 2 IEnMin= 2 EnMin= -455.994037347966     IErMin= 2 ErrMin= 1.57D-02
 ErrMax= 1.57D-02  0.00D+00 EMaxC= 1.00D-01 BMatC= 3.65D-02 BMatP= 2.60D-01
 IDIUse=3 WtCom= 8.43D-01 WtEn= 1.57D-01
 Coeff-Com:  0.212D+00 0.788D+00
 Coeff-En:   0.313D+00 0.687D+00
 Coeff:      0.228D+00 0.772D+00
 Gap=     0.323 Goal=   None    Shift=    0.000
 RMSDP=1.52D-02 MaxDP=9.78D-01 DE=-7.04D-02 OVMax= 1.39D-01

 Cycle   3  Pass 1  IDiag  1:
 E= -456.138114144219     Delta-E=       -0.144076796253 Rises=F Damp=F
 DIIS: error= 1.32D-02 at cycle   3 NSaved=   3.
 NSaved= 3 IEnMin= 3 EnMin= -456.138114144219     IErMin= 3 ErrMin= 1.32D-02
 ErrMax= 1.32D-02  0.00D+00 EMaxC= 1.00D-01 BMatC= 1.94D-02 BMatP= 3.65D-02
 IDIUse=3 WtCom= 8.68D-01 WtEn= 1.32D-01
 Coeff-Com:  0.693D-01 0.420D+00 0.511D+00
 Coeff-En:   0.000D+00 0.000D+00 0.100D+01
 Coeff:      0.601D-01 0.364D+00 0.575D+00
 Gap=     0.327 Goal=   None    Shift=    0.000
 RMSDP=2.34D-03 MaxDP=9.39D-02 DE=-1.44D-01 OVMax= 4.46D-02

 Cycle   4  Pass 1  IDiag  1:
 E= -456.153918256661     Delta-E=       -0.015804112441 Rises=F Damp=F
 DIIS: error= 4.68D-03 at cycle   4 NSaved=   4.
 NSaved= 4 IEnMin= 4 EnMin= -456.153918256661     IErMin= 4 ErrMin= 4.68D-03
 ErrMax= 4.68D-03  0.00D+00 EMaxC= 1.00D-01 BMatC= 2.39D-03 BMatP= 1.94D-02
 IDIUse=3 WtCom= 9.53D-01 WtEn= 4.68D-02
 Coeff-Com:  0.146D-01 0.254D-01 0.258D+00 0.702D+00
 Coeff-En:   0.000D+00 0.000D+00 0.595D-01 0.940D+00
 Coeff:      0.139D-01 0.242D-01 0.248D+00 0.714D+00
 Gap=     0.324 Goal=   None    Shift=    0.000
 RMSDP=8.92D-04 MaxDP=4.52D-02 DE=-1.58D-02 OVMax= 1.20D-02

 Cycle   5  Pass 1  IDiag  1:
 E= -456.155750860666     Delta-E=       -0.001832604005 Rises=F Damp=F
 DIIS: error= 1.35D-03 at cycle   5 NSaved=   5.
 NSaved= 5 IEnMin= 5 EnMin= -456.155750860666     IErMin= 5 ErrMin= 1.35D-03
 ErrMax= 1.35D-03  0.00D+00 EMaxC= 1.00D-01 BMatC= 1.45D-04 BMatP= 2.39D-03
 IDIUse=3 WtCom= 9.86D-01 WtEn= 1.35D-02
 Coeff-Com:  0.408D-02-0.172D-01 0.939D-01 0.369D+00 0.550D+00
 Coeff-En:   0.000D+00 0.000D+00 0.000D+00 0.000D+00 0.100D+01
 Coeff:      0.402D-02-0.170D-01 0.926D-01 0.364D+00 0.556D+00
 Gap=     0.320 Goal=   None    Shift=    0.000
 RMSDP=2.42D-04 MaxDP=1.54D-02 DE=-1.83D-03 OVMax= 3.17D-03

 Cycle   6  Pass 1  IDiag  1:
 E= -456.155881988744     Delta-E=       -0.000131128078 Rises=F Damp=F
 DIIS: error= 1.53D-04 at cycle   6 NSaved=   6.
 NSaved= 6 IEnMin= 6 EnMin= -456.155881988744     IErMin= 6 ErrMin= 1.53D-04
 ErrMax= 1.53D-04  0.00D+00 EMaxC= 1.00D-01 BMatC= 5.22D-06 BMatP= 1.45D-04
 IDIUse=3 WtCom= 9.98D-01 WtEn= 1.53D-03
 Coeff-Com:  0.159D-02-0.749D-02 0.142D-01 0.552D-01 0.161D+00 0.775D+00
 Coeff-En:   0.000D+00 0.000D+00 0.000D+00 0.000D+00 0.000D+00 0.100D+01
 Coeff:      0.158D-02-0.747D-02 0.142D-01 0.551D-01 0.161D+00 0.776D+00
 Gap=     0.320 Goal=   None    Shift=    0.000
 RMSDP=8.06D-05 MaxDP=4.38D-03 DE=-1.31D-04 OVMax= 4.02D-04

 Cycle   7  Pass 1  IDiag  1:
 E= -456.155886430149     Delta-E=       -0.000004441406 Rises=F Damp=F
 DIIS: error= 5.59D-05 at cycle   7 NSaved=   7.
 NSaved= 7 IEnMin= 7 EnMin= -456.155886430149     IErMin= 7 ErrMin= 5.59D-05
 ErrMax= 5.59D-05  0.00D+00 EMaxC= 1.00D-01 BMatC= 5.09D-07 BMatP= 5.22D-06
 IDIUse=1 WtCom= 1.00D+00 WtEn= 0.00D+00
 Coeff-Com:  0.353D-03-0.770D-03-0.691D-02-0.320D-01-0.120D-01 0.248D+00
 Coeff-Com:  0.804D+00
 Coeff:      0.353D-03-0.770D-03-0.691D-02-0.320D-01-0.120D-01 0.248D+00
 Coeff:      0.804D+00
 Gap=     0.320 Goal=   None    Shift=    0.000
 RMSDP=2.49D-05 MaxDP=7.97D-04 DE=-4.44D-06 OVMax= 2.62D-04

 Cycle   8  Pass 1  IDiag  1:
 E= -456.155886970175     Delta-E=       -0.000000540025 Rises=F Damp=F
 DIIS: error= 1.23D-05 at cycle   8 NSaved=   8.
 NSaved= 8 IEnMin= 8 EnMin= -456.155886970175     IErMin= 8 ErrMin= 1.23D-05
 ErrMax= 1.23D-05  0.00D+00 EMaxC= 1.00D-01 BMatC= 2.34D-08 BMatP= 5.09D-07
 IDIUse=1 WtCom= 1.00D+00 WtEn= 0.00D+00
 Coeff-Com:  0.286D-05 0.222D-03-0.190D-02-0.931D-02-0.108D-01-0.139D-01
 Coeff-Com:  0.189D+00 0.847D+00
 Coeff:      0.286D-05 0.222D-03-0.190D-02-0.931D-02-0.108D-01-0.139D-01
 Coeff:      0.189D+00 0.847D+00
 Gap=     0.320 Goal=   None    Shift=    0.000
 RMSDP=5.39D-06 MaxDP=1.38D-04 DE=-5.40D-07 OVMax= 9.58D-05

 Cycle   9  Pass 1  IDiag  1:
 E= -456.155886984035     Delta-E=       -0.000000013860 Rises=F Damp=F
 DIIS: error= 1.38D-05 at cycle   9 NSaved=   9.
 NSaved= 9 IEnMin= 9 EnMin= -456.155886984035     IErMin= 8 ErrMin= 1.23D-05
 ErrMax= 1.38D-05  0.00D+00 EMaxC= 1.00D-01 BMatC= 1.88D-08 BMatP= 2.34D-08
 IDIUse=1 WtCom= 1.00D+00 WtEn= 0.00D+00
 Coeff-Com: -0.388D-04 0.241D-03-0.377D-03-0.229D-02-0.563D-02-0.411D-01
 Coeff-Com:  0.316D-01 0.594D+00 0.423D+00
 Coeff:     -0.388D-04 0.241D-03-0.377D-03-0.229D-02-0.563D-02-0.411D-01
 Coeff:      0.316D-01 0.594D+00 0.423D+00
 Gap=     0.320 Goal=   None    Shift=    0.000
 RMSDP=2.47D-06 MaxDP=9.56D-05 DE=-1.39D-08 OVMax= 3.73D-05

 Cycle  10  Pass 1  IDiag  1:
 E= -456.155886999009     Delta-E=       -0.000000014975 Rises=F Damp=F
 DIIS: error= 5.20D-07 at cycle  10 NSaved=  10.
 NSaved=10 IEnMin=10 EnMin= -456.155886999009     IErMin=10 ErrMin= 5.20D-07
 ErrMax= 5.20D-07  0.00D+00 EMaxC= 1.00D-01 BMatC= 8.11D-11 BMatP= 1.88D-08
 IDIUse=1 WtCom= 1.00D+00 WtEn= 0.00D+00
 Coeff-Com: -0.963D-05 0.352D-04 0.995D-04 0.320D-03-0.233D-03-0.744D-02
 Coeff-Com: -0.103D-01 0.481D-01 0.592D-01 0.910D+00
 Coeff:     -0.963D-05 0.352D-04 0.995D-04 0.320D-03-0.233D-03-0.744D-02
 Coeff:     -0.103D-01 0.481D-01 0.592D-01 0.910D+00
 Gap=     0.320 Goal=   None    Shift=    0.000
 RMSDP=4.75D-07 MaxDP=1.99D-05 DE=-1.50D-08 OVMax= 5.20D-06

 Cycle  11  Pass 1  IDiag  1:
 E= -456.155886999101     Delta-E=       -0.000000000092 Rises=F Damp=F
 DIIS: error= 3.89D-07 at cycle  11 NSaved=  11.
 NSaved=11 IEnMin=11 EnMin= -456.155886999101     IErMin=11 ErrMin= 3.89D-07
 ErrMax= 3.89D-07  0.00D+00 EMaxC= 1.00D-01 BMatC= 2.71D-11 BMatP= 8.11D-11
 IDIUse=1 WtCom= 1.00D+00 WtEn= 0.00D+00
 Coeff-Com: -0.188D-05 0.268D-05 0.683D-04 0.258D-03 0.214D-03-0.102D-02
 Coeff-Com: -0.625D-02-0.117D-01 0.636D-02 0.403D+00 0.609D+00
 Coeff:     -0.188D-05 0.268D-05 0.683D-04 0.258D-03 0.214D-03-0.102D-02
 Coeff:     -0.625D-02-0.117D-01 0.636D-02 0.403D+00 0.609D+00
 Gap=     0.320 Goal=   None    Shift=    0.000
 RMSDP=1.10D-07 MaxDP=6.62D-06 DE=-9.20D-11 OVMax= 1.39D-06

 Cycle  12  Pass 1  IDiag  1:
 E= -456.155886999127     Delta-E=       -0.000000000026 Rises=F Damp=F
 DIIS: error= 1.88D-07 at cycle  12 NSaved=  12.
 NSaved=12 IEnMin=12 EnMin= -456.155886999127     IErMin=12 ErrMin= 1.88D-07
 ErrMax= 1.88D-07  0.00D+00 EMaxC= 1.00D-01 BMatC= 3.27D-12 BMatP= 2.71D-11
 IDIUse=1 WtCom= 1.00D+00 WtEn= 0.00D+00
 Coeff-Com:  0.647D-06-0.321D-05 0.151D-04 0.530D-04 0.114D-03 0.540D-03
 Coeff-Com: -0.117D-02-0.114D-01-0.283D-02 0.313D-01 0.260D+00 0.724D+00
 Coeff:      0.647D-06-0.321D-05 0.151D-04 0.530D-04 0.114D-03 0.540D-03
 Coeff:     -0.117D-02-0.114D-01-0.283D-02 0.313D-01 0.260D+00 0.724D+00
 Gap=     0.320 Goal=   None    Shift=    0.000
 RMSDP=3.73D-08 MaxDP=9.95D-07 DE=-2.63D-11 OVMax= 5.51D-07

 Cycle  13  Pass 1  IDiag  1:
 E= -456.155886999132     Delta-E=       -0.000000000004 Rises=F Damp=F
 DIIS: error= 2.27D-08 at cycle  13 NSaved=  13.
 NSaved=13 IEnMin=13 EnMin= -456.155886999132     IErMin=13 ErrMin= 2.27D-08
 ErrMax= 2.27D-08  0.00D+00 EMaxC= 1.00D-01 BMatC= 8.90D-14 BMatP= 3.27D-12
 IDIUse=1 WtCom= 1.00D+00 WtEn= 0.00D+00
 Coeff-Com:  0.292D-06-0.107D-05 0.255D-05 0.651D-05 0.280D-04 0.193D-03
 Coeff-Com: -0.155D-03-0.295D-02-0.136D-02-0.479D-02 0.514D-01 0.216D+00
 Coeff-Com:  0.742D+00
 Coeff:      0.292D-06-0.107D-05 0.255D-05 0.651D-05 0.280D-04 0.193D-03
 Coeff:     -0.155D-03-0.295D-02-0.136D-02-0.479D-02 0.514D-01 0.216D+00
 Coeff:      0.742D+00
 Gap=     0.320 Goal=   None    Shift=    0.000
 RMSDP=5.92D-09 MaxDP=1.17D-07 DE=-4.09D-12 OVMax= 7.79D-08

 SCF Done:  E(RBMK) =  -456.155886999     A.U. after   13 cycles
            NFock= 13  Conv=0.59D-08     -V/T= 2.0067
 KE= 4.531013398927D+02 PE=-1.943832384797D+03 EE= 5.950567873494D+02
 Leave Link  502 at Wed Sep  3 14:15:33 2025, MaxMem=  8053063680 cpu:        79.4
 (Enter /nexus/posix0/bmm/home/sucerqdl/sw/g09/l801.exe)
 DoSCS=F DFT=T ScalE2(SS,OS)=  1.000000  1.000000
 Range of M.O.s used for correlation:     1   137
 NBasis=   137 NAE=    35 NBE=    35 NFC=     0 NFV=     0
 NROrb=    137 NOA=    35 NOB=    35 NVA=   102 NVB=   102

 **** Warning!!: The largest alpha MO coefficient is  0.51742425D+02

 Leave Link  801 at Wed Sep  3 14:15:33 2025, MaxMem=  8053063680 cpu:         0.3
 (Enter /nexus/posix0/bmm/home/sucerqdl/sw/g09/l1101.exe)
 Using compressed storage, NAtomX=    19.
 Will process     20 centers per pass.
 Leave Link 1101 at Wed Sep  3 14:15:33 2025, MaxMem=  8053063680 cpu:         1.7
 (Enter /nexus/posix0/bmm/home/sucerqdl/sw/g09/l1102.exe)
 Symmetrizing basis deriv contribution to polar:
 IMax=3 JMax=2 DiffMx= 0.00D+00
 Leave Link 1102 at Wed Sep  3 14:15:33 2025, MaxMem=  8053063680 cpu:         0.4
 (Enter /nexus/posix0/bmm/home/sucerqdl/sw/g09/l1110.exe)
 Forming Gx(P) for the SCF density, NAtomX=    19.
 Integral derivatives from FoFJK, PRISM(SPDF).
 Do as many integral derivatives as possible in FoFJK.
 G2DrvN: MDV=    8053063424.
 G2DrvN: will do    20 centers at a time, making    1 passes.
 Calling FoFCou, ICntrl=  3107 FMM=F I1Cent=   0 AccDes= 0.00D+00.
 FoFJK:  IHMeth= 1 ICntrl=    3107 DoSepK=F KAlg= 0 I1Cent=   0 FoldK=F
 IRaf=         0 NMat=   1 IRICut=       1 DoRegI=T DoRafI=F ISym2E= 0.
 FoFCou: FMM=F IPFlag=           0 FMFlag=      100000 FMFlg1=           0
         NFxFlg=           0 DoJE=F BraDBF=F KetDBF=F FulRan=T
         wScrn=  0.000000 ICntrl=    3107 IOpCl=  0 I1Cent=           0 NGrid=           0
         NMat0=    1 NMatS0=      1 NMatT0=    0 NMatD0=    1 NMtDS0=    0 NMtDT0=    0
 Symmetry not used in FoFCou.
 End of G2Drv F.D. properties file   721 does not exist.
 End of G2Drv F.D. properties file   722 does not exist.
 End of G2Drv F.D. properties file   788 does not exist.
 Leave Link 1110 at Wed Sep  3 14:15:42 2025, MaxMem=  8053063680 cpu:       141.8
 (Enter /nexus/posix0/bmm/home/sucerqdl/sw/g09/l1002.exe)
 Minotr:  Closed shell wavefunction.
          IDoAtm=1111111111111111111
          Direct CPHF calculation.
          Differentiating once with respect to nuclear coordinates.
          Requested convergence is 1.0D-08 RMS, and 1.0D-07 maximum.
          Secondary convergence is 1.0D-12 RMS, and 1.0D-12 maximum.
          NewPWx=T KeepS1=F KeepF1=F KeepIn=T MapXYZ=F SortEE=F KeepMc=T.
          MDV=    8053063349 using IRadAn=       2.
 Generate precomputed XC quadrature information.
 Keep R1 ints in memory in canonical form, NReq=46004208.
 FoFCou: FMM=F IPFlag=           0 FMFlag=           0 FMFlg1=           0
         NFxFlg=           0 DoJE=F BraDBF=F KetDBF=F FulRan=T
         wScrn=  0.000000 ICntrl=     600 IOpCl=  0 I1Cent=           0 NGrid=           0
         NMat0=    1 NMatS0=   9453 NMatT0=    0 NMatD0=    1 NMtDS0=    0 NMtDT0=    0
 Symmetry not used in FoFCou.
          Solving linear equations simultaneously, MaxMat=       0.
          There are    60 degrees of freedom in the 1st order CPHF.  IDoFFX=6 NUNeed=     0.
     54 vectors produced by pass  0 Test12= 5.95D-15 1.67D-09 XBig12= 1.33D-01 9.67D-02.
 AX will form    54 AO Fock derivatives at one time.
     54 vectors produced by pass  1 Test12= 5.95D-15 1.67D-09 XBig12= 1.02D-02 3.63D-02.
     54 vectors produced by pass  2 Test12= 5.95D-15 1.67D-09 XBig12= 9.69D-05 1.73D-03.
     54 vectors produced by pass  3 Test12= 5.95D-15 1.67D-09 XBig12= 2.80D-07 8.12D-05.
     54 vectors produced by pass  4 Test12= 5.95D-15 1.67D-09 XBig12= 8.51D-10 5.39D-06.
     54 vectors produced by pass  5 Test12= 5.95D-15 1.67D-09 XBig12= 2.04D-12 2.73D-07.
     22 vectors produced by pass  6 Test12= 5.95D-15 1.67D-09 XBig12= 9.83D-15 2.18D-08.
      5 vectors produced by pass  7 Test12= 5.95D-15 1.67D-09 XBig12= 2.28D-16 2.47D-09.
      1 vectors produced by pass  8 Test12= 5.95D-15 1.67D-09 XBig12= 1.43D-16 2.13D-09.
 InvSVY:  IOpt=1 It=  1 EMax= 5.00D-16
 Solved reduced A of dimension   352 with    60 vectors.
 End of Minotr F.D. properties file   721 does not exist.
 End of Minotr F.D. properties file   722 does not exist.
 End of Minotr F.D. properties file   788 does not exist.
 Leave Link 1002 at Wed Sep  3 14:15:51 2025, MaxMem=  8053063680 cpu:       144.8
 (Enter /nexus/posix0/bmm/home/sucerqdl/sw/g09/l601.exe)
 Copying SCF densities to generalized density rwf, IOpCl= 0 IROHF=0.

 **********************************************************************

            Population analysis using the SCF density.

 **********************************************************************

 Orbital symmetries:
       Occupied  (A) (A) (A) (A) (A) (A) (A) (A) (A) (A) (A) (A)
                 (A) (A) (A) (A) (A) (A) (A) (A) (A) (A) (A) (A)
                 (A) (A) (A) (A) (A) (A) (A) (A) (A) (A) (A)
       Virtual   (A) (A) (A) (A) (A) (A) (A) (A) (A) (A) (A) (A)
                 (A) (A) (A) (A) (A) (A) (A) (A) (A) (A) (A) (A)
                 (A) (A) (A) (A) (A) (A) (A) (A) (A) (A) (A) (A)
                 (A) (A) (A) (A) (A) (A) (A) (A) (A) (A) (A) (A)
                 (A) (A) (A) (A) (A) (A) (A) (A) (A) (A) (A) (A)
                 (A) (A) (A) (A) (A) (A) (A) (A) (A) (A) (A) (A)
                 (A) (A) (A) (A) (A) (A) (A) (A) (A) (A) (A) (A)
                 (A) (A) (A) (A) (A) (A) (A) (A) (A) (A) (A) (A)
                 (A) (A) (A) (A) (A) (A)
 The electronic state is 1-A.
 Alpha  occ. eigenvalues --  -19.54496 -19.51911 -14.73000 -14.70996 -10.62592
 Alpha  occ. eigenvalues --  -10.60583 -10.54201 -10.52779 -10.48588  -1.15860
 Alpha  occ. eigenvalues --   -1.13254  -1.01851  -1.00230  -0.83867  -0.80203
 Alpha  occ. eigenvalues --   -0.76140  -0.66573  -0.64922  -0.59521  -0.54427
 Alpha  occ. eigenvalues --   -0.53494  -0.53339  -0.50986  -0.50661  -0.48255
 Alpha  occ. eigenvalues --   -0.46868  -0.45653  -0.44898  -0.43923  -0.43214
 Alpha  occ. eigenvalues --   -0.39901  -0.32825  -0.31652  -0.29932  -0.29499
 Alpha virt. eigenvalues --    0.02538   0.02895   0.04413   0.04723   0.04985
 Alpha virt. eigenvalues --    0.06757   0.06838   0.07938   0.09138   0.09195
 Alpha virt. eigenvalues --    0.09746   0.11021   0.11528   0.12235   0.13386
 Alpha virt. eigenvalues --    0.13730   0.14895   0.15555   0.15821   0.17066
 Alpha virt. eigenvalues --    0.18451   0.19827   0.20450   0.20525   0.21566
 Alpha virt. eigenvalues --    0.22016   0.22554   0.23454   0.23614   0.24260
 Alpha virt. eigenvalues --    0.26242   0.27168   0.27597   0.27678   0.28401
 Alpha virt. eigenvalues --    0.29387   0.29696   0.30228   0.30826   0.32185
 Alpha virt. eigenvalues --    0.32910   0.33772   0.35095   0.35918   0.36639
 Alpha virt. eigenvalues --    0.37557   0.38722   0.39998   0.41438   0.43379
 Alpha virt. eigenvalues --    0.44863   0.45945   0.47354   0.49194   0.53994
 Alpha virt. eigenvalues --    0.56510   0.70505   0.70576   0.71117   0.71360
 Alpha virt. eigenvalues --    0.72551   0.73787   0.76983   0.78677   0.80367
 Alpha virt. eigenvalues --    0.81495   0.86817   0.88159   0.91144   0.93742
 Alpha virt. eigenvalues --    0.97354   0.97742   1.01535   1.05737   1.09626
 Alpha virt. eigenvalues --    1.09968   1.11402   1.12390   1.14807   1.17203
 Alpha virt. eigenvalues --    1.17914   1.19486   1.21737   1.24598   1.26809
 Alpha virt. eigenvalues --    1.34139   1.34988   1.35259   1.37367   1.37448
 Alpha virt. eigenvalues --    1.44522   1.45669   1.48877   1.52877   1.54346
 Alpha virt. eigenvalues --    1.56090   1.61143   1.66073   1.75088   1.85342
 Alpha virt. eigenvalues --    2.10598   2.12492
          Condensed to atoms (all electrons):
               1          2          3          4          5          6
     1  C    6.524947   0.385111   0.409463   0.409483  -0.396466  -0.067061
     2  H    0.385111   0.528039  -0.025796  -0.025795  -0.064813   0.005755
     3  H    0.409463  -0.025796   0.469328  -0.023091  -0.057909  -0.004075
     4  H    0.409483  -0.025795  -0.023091   0.469323  -0.057927  -0.004075
     5  C   -0.396466  -0.064813  -0.057909  -0.057927   5.928869   0.405338
     6  O   -0.067061   0.005755  -0.004075  -0.004075   0.405338   8.484324
     7  N   -0.401268   0.007934   0.003527   0.003531  -0.162843  -0.232973
     8  H    0.011816   0.002037   0.000010   0.000010   0.019073   0.004539
     9  C   -0.339746  -0.002911  -0.002971  -0.002972  -0.841610  -0.062187
    10  H   -0.000652  -0.000004   0.000024  -0.000008   0.006497   0.001334
    11  H   -0.000647  -0.000004  -0.000008   0.000024   0.006507   0.001332
    12  C    0.213572   0.000953  -0.001237  -0.001238   0.519210   0.036077
    13  O   -0.000189  -0.000074   0.000014   0.000014   0.012895  -0.000864
    14  N    0.001786   0.000049  -0.000005  -0.000005   0.016917  -0.001708
    15  H    0.000053   0.000000   0.000000   0.000000   0.000199   0.000037
    16  C    0.001871   0.000039  -0.000001  -0.000001   0.006947  -0.000176
    17  H   -0.000004   0.000000   0.000000   0.000000  -0.000068   0.000000
    18  H    0.000016   0.000000   0.000000   0.000000   0.000091   0.000000
    19  H    0.000016   0.000000   0.000000   0.000000   0.000090   0.000000
               7          8          9         10         11         12
     1  C   -0.401268   0.011816  -0.339746  -0.000652  -0.000647   0.213572
     2  H    0.007934   0.002037  -0.002911  -0.000004  -0.000004   0.000953
     3  H    0.003527   0.000010  -0.002971   0.000024  -0.000008  -0.001237
     4  H    0.003531   0.000010  -0.002972  -0.000008   0.000024  -0.001238
     5  C   -0.162843   0.019073  -0.841610   0.006497   0.006507   0.519210
     6  O   -0.232973   0.004539  -0.062187   0.001334   0.001332   0.036077
     7  N    7.980851   0.260005   0.371169  -0.048379  -0.048352  -0.212318
     8  H    0.260005   0.296554  -0.116682   0.002228   0.002228   0.060924
     9  C    0.371169  -0.116682  12.122383   0.336752   0.336720  -4.320651
    10  H   -0.048379   0.002228   0.336752   0.485790  -0.035594  -0.006056
    11  H   -0.048352   0.002228   0.336720  -0.035594   0.485784  -0.006056
    12  C   -0.212318   0.060924  -4.320651  -0.006056  -0.006056   8.394877
    13  O    0.013115   0.016927   0.032708   0.000752   0.000750   0.274304
    14  N    0.005531   0.006042  -0.761402   0.011006   0.011001   0.376889
    15  H    0.000897  -0.000022  -0.006273  -0.000049  -0.000049   0.013616
    16  C   -0.003117   0.002260  -0.125971   0.003181   0.003183  -0.100475
    17  H    0.000016   0.000000  -0.003028   0.000001   0.000001   0.017163
    18  H   -0.000120   0.000000  -0.001755   0.000019  -0.000010  -0.016828
    19  H   -0.000121   0.000000  -0.001763  -0.000010   0.000019  -0.016838
              13         14         15         16         17         18
     1  C   -0.000189   0.001786   0.000053   0.001871  -0.000004   0.000016
     2  H   -0.000074   0.000049   0.000000   0.000039   0.000000   0.000000
     3  H    0.000014  -0.000005   0.000000  -0.000001   0.000000   0.000000
     4  H    0.000014  -0.000005   0.000000  -0.000001   0.000000   0.000000
     5  C    0.012895   0.016917   0.000199   0.006947  -0.000068   0.000091
     6  O   -0.000864  -0.001708   0.000037  -0.000176   0.000000   0.000000
     7  N    0.013115   0.005531   0.000897  -0.003117   0.000016  -0.000120
     8  H    0.016927   0.006042  -0.000022   0.002260   0.000000   0.000000
     9  C    0.032708  -0.761402  -0.006273  -0.125971  -0.003028  -0.001755
    10  H    0.000752   0.011006  -0.000049   0.003181   0.000001   0.000019
    11  H    0.000750   0.011001  -0.000049   0.003183   0.000001  -0.000010
    12  C    0.274304   0.376889   0.013616  -0.100475   0.017163  -0.016828
    13  O    8.485522  -0.240710   0.005060  -0.017517   0.001473   0.000853
    14  N   -0.240710   7.878030   0.281374   0.157250  -0.046321  -0.048564
    15  H    0.005060   0.281374   0.331803  -0.021092  -0.003784   0.002042
    16  C   -0.017517   0.157250  -0.021092   5.286187   0.377999   0.410269
    17  H    0.001473  -0.046321  -0.003784   0.377999   0.520813  -0.026800
    18  H    0.000853  -0.048564   0.002042   0.410269  -0.026800   0.487751
    19  H    0.000855  -0.048570   0.002044   0.410301  -0.026787  -0.032111
              19
     1  C    0.000016
     2  H    0.000000
     3  H    0.000000
     4  H    0.000000
     5  C    0.000090
     6  O    0.000000
     7  N   -0.000121
     8  H    0.000000
     9  C   -0.001763
    10  H   -0.000010
    11  H    0.000019
    12  C   -0.016838
    13  O    0.000855
    14  N   -0.048570
    15  H    0.002044
    16  C    0.410301
    17  H   -0.026787
    18  H   -0.032111
    19  H    0.487698
 Mulliken charges:
               1
     1  C   -0.752103
     2  H    0.189480
     3  H    0.232726
     4  H    0.232727
     5  C    0.659003
     6  O   -0.565617
     7  N   -0.537084
     8  H    0.432050
     9  C   -0.609813
    10  H    0.243169
    11  H    0.243171
    12  C    0.774111
    13  O   -0.585886
    14  N   -0.598591
    15  H    0.394145
    16  C   -0.391136
    17  H    0.189325
    18  H    0.225148
    19  H    0.225176
 Sum of Mulliken charges =   0.00000
 Mulliken charges with hydrogens summed into heavy atoms:
               1
     1  C   -0.097171
     5  C    0.659003
     6  O   -0.565617
     7  N   -0.105034
     9  C   -0.123473
    12  C    0.774111
    13  O   -0.585886
    14  N   -0.204446
    16  C    0.248513
 APT charges:
               1
     1  C   -1.832249
     2  H    0.300131
     3  H    0.685030
     4  H    0.685127
     5  C    0.449171
     6  O   -0.493672
     7  N   -0.461460
     8  H    0.521367
     9  C   -0.878653
    10  H    0.454448
    11  H    0.454462
    12  C    0.520017
    13  O   -0.611633
    14  N   -0.253620
    15  H    0.625455
    16  C   -1.867657
    17  H    0.800756
    18  H    0.451603
    19  H    0.451378
 Sum of APT charges =   0.00000
 APT charges with hydrogens summed into heavy atoms:
               1
     1  C   -0.161961
     5  C    0.449171
     6  O   -0.493672
     7  N    0.059906
     9  C    0.030257
    12  C    0.520017
    13  O   -0.611633
    14  N    0.371835
    16  C   -0.163920
 Electronic spatial extent (au):  <R**2>=           1927.5480
 Charge=              0.0000 electrons
 Dipole moment (field-independent basis, Debye):
    X=             -3.5079    Y=             -0.2239    Z=              0.0003  Tot=              3.5150
 Quadrupole moment (field-independent basis, Debye-Ang):
   XX=            -46.3555   YY=            -60.0712   ZZ=            -55.1826
   XY=             18.0932   XZ=              0.0002   YZ=              0.0000
 Traceless Quadrupole moment (field-independent basis, Debye-Ang):
   XX=              7.5143   YY=             -6.2014   ZZ=             -1.3129
   XY=             18.0932   XZ=              0.0002   YZ=              0.0000
 Octapole moment (field-independent basis, Debye-Ang**2):
  XXX=            -55.6188  YYY=             -3.6023  ZZZ=              0.0014  XYY=            -14.8860
  XXY=             21.0370  XXZ=              0.0008  XZZ=              1.9577  YZZ=             -0.3162
  YYZ=             -0.0003  XYZ=              0.0004
 Hexadecapole moment (field-independent basis, Debye-Ang**3):
 XXXX=          -1897.2112 YYYY=           -309.1916 ZZZZ=            -74.5235 XXXY=            116.4582
 XXXZ=              0.0053 YYYX=             50.0687 YYYZ=             -0.0018 ZZZX=              0.0017
 ZZZY=              0.0008 XXYY=           -442.9481 XXZZ=           -367.0265 YYZZ=            -63.0883
 XXYZ=              0.0029 YYXZ=              0.0037 ZZXY=             -7.1625
 N-N= 4.395183705555D+02 E-N=-1.943832384698D+03  KE= 4.531013398927D+02
  Exact polarizability:   0.000   0.000   0.000   0.000   0.000   0.000
 Approx polarizability:  96.067  -1.264 108.868  -0.001   0.000  62.823
 No NMR shielding tensors so no spin-rotation constants.
 Leave Link  601 at Wed Sep  3 14:15:51 2025, MaxMem=  8053063680 cpu:         1.6
 (Enter /nexus/posix0/bmm/home/sucerqdl/sw/g09/l701.exe)
 Compute integral second derivatives.
 ... and contract with generalized density number  0.
 Leave Link  701 at Wed Sep  3 14:15:52 2025, MaxMem=  8053063680 cpu:         1.5
 (Enter /nexus/posix0/bmm/home/sucerqdl/sw/g09/l702.exe)
 L702 exits ... SP integral derivatives will be done elsewhere.
 Leave Link  702 at Wed Sep  3 14:15:52 2025, MaxMem=  8053063680 cpu:         0.3
 (Enter /nexus/posix0/bmm/home/sucerqdl/sw/g09/l703.exe)
 Compute integral second derivatives, UseDBF=F ICtDFT=           0.
 Integral derivatives from FoFJK, PRISM(SPDF).
 Calling FoFJK, ICntrl=    100147 FMM=F ISym2X=0 I1Cent= 0 IOpClX= 0 NMat=1 NMatS=1 NMatT=0.
 FoFJK:  IHMeth= 1 ICntrl=  100147 DoSepK=F KAlg= 0 I1Cent=   0 FoldK=F
 IRaf=         0 NMat=   1 IRICut=       1 DoRegI=T DoRafI=F ISym2E= 0.
 FoFCou: FMM=F IPFlag=           0 FMFlag=      100000 FMFlg1=         800
         NFxFlg=           0 DoJE=F BraDBF=F KetDBF=F FulRan=T
         wScrn=  0.000000 ICntrl=  100147 IOpCl=  0 I1Cent=           0 NGrid=           0
         NMat0=    1 NMatS0=      1 NMatT0=    0 NMatD0=    1 NMtDS0=    0 NMtDT0=    0
 Symmetry not used in FoFCou.
 Leave Link  703 at Wed Sep  3 14:15:58 2025, MaxMem=  8053063680 cpu:       109.1
 (Enter /nexus/posix0/bmm/home/sucerqdl/sw/g09/l716.exe)
 Dipole        =-1.38011065D+00-8.81020791D-02 1.13045680D-04
 Polarizability= 0.00000000D+00 0.00000000D+00 0.00000000D+00
                 0.00000000D+00 0.00000000D+00 0.00000000D+00
 ***** Axes restored to original set *****
 -------------------------------------------------------------------
 Center     Atomic                   Forces (Hartrees/Bohr)
 Number     Number              X              Y              Z
 -------------------------------------------------------------------
      1        6           0.006537524    0.003345649   -0.000004840
      2        1          -0.001732574    0.000750897    0.000000187
      3        1           0.006485946   -0.000294627   -0.003348907
      4        1           0.006491921   -0.000297034    0.003352335
      5        6           0.009257313   -0.002277475    0.000000688
      6        8           0.001762359   -0.005241879   -0.000000233
      7        7          -0.004920465    0.007212565    0.000001743
      8        1          -0.001190713   -0.000232340   -0.000001548
      9        6          -0.002412435   -0.003984754    0.000000038
     10        1          -0.000234236   -0.000713623   -0.000026138
     11        1          -0.000236990   -0.000715405    0.000026990
     12        6           0.008087871    0.001532753   -0.000001725
     13        8           0.001199240    0.004983105    0.000001491
     14        7          -0.008763371   -0.009234441    0.000000215
     15        1          -0.000358526    0.000430250    0.000000740
     16        6          -0.006177080    0.007655147   -0.000003376
     17        1          -0.012433153   -0.004070647    0.000003463
     18        1          -0.000683626    0.000576701    0.000107858
     19        1          -0.000679005    0.000575160   -0.000108980
 -------------------------------------------------------------------
 Cartesian Forces:  Max     0.012433153 RMS     0.004000629
 FormGI is forming the generalized inverse of G from B-inverse, IUseBI=4.
 GSVD:  received Info=                   1 from GESDD.
 Leave Link  716 at Wed Sep  3 14:15:59 2025, MaxMem=  8053063680 cpu:         0.6
 (Enter /nexus/posix0/bmm/home/sucerqdl/sw/g09/l103.exe)

 GradGradGradGradGradGradGradGradGradGradGradGradGradGradGradGradGradGrad
 Berny optimization.
 Red2BG is reusing G-inverse.
 Internal  Forces:  Max     0.016990783 RMS     0.005022768
 Search for a local minimum.
 Step number   1 out of a maximum of   91
 All quantities printed in internal units (Hartrees-Bohrs-Radians)
 RMS Force = .48489D-02 SwitMx=.10000D-02 MixMth= 1
 Mixed Optimization -- RFO/linear search
 Second derivative matrix not updated -- analytic derivatives used.
 ITU=  0
     Eigenvalues ---    0.00002   0.00083   0.00157   0.00504   0.00751
     Eigenvalues ---    0.00907   0.02094   0.02600   0.04092   0.04444
     Eigenvalues ---    0.05554   0.05932   0.06165   0.06239   0.06490
     Eigenvalues ---    0.06518   0.08336   0.12462   0.12802   0.13272
     Eigenvalues ---    0.13323   0.13462   0.14854   0.14942   0.16520
     Eigenvalues ---    0.18064   0.18522   0.20128   0.21683   0.23104
     Eigenvalues ---    0.23371   0.23960   0.29589   0.31824   0.32283
     Eigenvalues ---    0.33456   0.33590   0.33822   0.34004   0.34512
     Eigenvalues ---    0.34965   0.35371   0.35942   0.36358   0.39919
     Eigenvalues ---    0.43882   0.49021   0.49621   0.73955   0.74652
     Eigenvalues --- 1000.000001000.000001000.000001000.000001000.00000
     Eigenvalues --- 1000.000001000.000001000.000001000.000001000.00000
     Eigenvalues --- 1000.000001000.000001000.000001000.000001000.00000
     Eigenvalues --- 1000.000001000.000001000.000001000.000001000.00000
     Eigenvalues --- 1000.000001000.000001000.000001000.000001000.00000
     Eigenvalues --- 1000.000001000.000001000.000001000.000001000.00000
     Eigenvalues --- 1000.00000
 RFO step:  Lambda=-5.96492176D-03 EMin= 1.76069935D-05
 Linear search not attempted -- first point.
 Iteration  1 RMS(Cart)=  0.09951118 RMS(Int)=  0.00290702
 Iteration  2 RMS(Cart)=  0.00446546 RMS(Int)=  0.00071733
 Iteration  3 RMS(Cart)=  0.00003214 RMS(Int)=  0.00071731
 Iteration  4 RMS(Cart)=  0.00000026 RMS(Int)=  0.00071731
 Iteration  1 RMS(Cart)=  0.00046478 RMS(Int)=  0.00006809
 Iteration  2 RMS(Cart)=  0.00004422 RMS(Int)=  0.00007096
 Iteration  3 RMS(Cart)=  0.00000421 RMS(Int)=  0.00007152
 Iteration  4 RMS(Cart)=  0.00000040 RMS(Int)=  0.00007157
 ITry= 1 IFail=0 DXMaxC= 3.04D-01 DCOld= 1.00D+10 DXMaxT= 3.00D-01 DXLimC= 3.00D+00 Rises=F
 Variable       Old X    -DE/DX   Delta X   Delta X   Delta X     New X
                                 (Linear)    (Quad)   (Total)
    R1        2.07429  -0.00118   0.00000  -0.00298  -0.00298   2.07131
    R2        2.09046  -0.00642   0.00000  -0.01935  -0.01935   2.07111
    R3        2.09048  -0.00643   0.00000  -0.01937  -0.01937   2.07111
    R4        2.92136  -0.00655   0.00000  -0.02165  -0.01979   2.90157
    R5       14.14592  -0.01223   0.00000   0.00000   0.00000  14.14592
    R6        2.35937  -0.00539   0.00000   0.00055   0.00055   2.35992
    R7        2.62447  -0.01671   0.00000  -0.04190  -0.03997   2.58451
    R8        1.91435   0.00007   0.00000  -0.00030  -0.00030   1.91405
    R9        2.78879  -0.01042   0.00000  -0.03225  -0.03040   2.75839
   R10        2.08073  -0.00045   0.00000  -0.00023  -0.00023   2.08050
   R11        2.08074  -0.00045   0.00000  -0.00024  -0.00024   2.08050
   R12        2.94120  -0.00750   0.00000  -0.03120  -0.02943   2.91176
   R13        2.35599  -0.00509   0.00000  -0.00427  -0.00427   2.35172
   R14        2.61699  -0.01699   0.00000  -0.04184  -0.03990   2.57708
   R15        1.90696   0.00040   0.00000   0.00102   0.00102   1.90797
   R16        2.81568  -0.00907   0.00000  -0.02582  -0.02387   2.79180
   R17        2.10176  -0.01234   0.00000  -0.03761  -0.03761   2.06415
   R18        2.07243  -0.00027   0.00000  -0.00061  -0.00061   2.07183
   R19        2.07242  -0.00027   0.00000  -0.00060  -0.00060   2.07182
    A1        1.91194   0.00034   0.00000  -0.00018  -0.00007   1.91187
    A2        1.91195   0.00034   0.00000  -0.00018  -0.00007   1.91188
    A3        1.95067   0.00341   0.00000   0.02048   0.02058   1.97125
    A4        1.85645   0.00417   0.00000   0.02982   0.02959   1.88604
    A5        1.91523  -0.00411   0.00000  -0.02478  -0.02482   1.89040
    A6        1.91523  -0.00412   0.00000  -0.02479  -0.02483   1.89040
    A7        2.11238  -0.00106   0.00000  -0.01068  -0.01181   2.10057
    A8        2.06002   0.00496   0.00000   0.02366   0.02593   2.08595
    A9        2.11078  -0.00391   0.00000  -0.01298  -0.01412   2.09666
   A10        2.14130   0.00513   0.00000   0.02238   0.02263   2.16393
   A11        2.13527  -0.01258   0.00000  -0.04891  -0.04940   2.08587
   A12        2.00661   0.00745   0.00000   0.02653   0.02677   2.03339
   A13        1.92054  -0.00247   0.00000  -0.00654  -0.00739   1.91315
   A14        1.92057  -0.00247   0.00000  -0.00656  -0.00741   1.91315
   A15        1.91882   0.00781   0.00000   0.01761   0.02039   1.93921
   A16        1.86562   0.00125   0.00000  -0.00461  -0.00436   1.86126
   A17        1.91885  -0.00220   0.00000  -0.00033  -0.00111   1.91773
   A18        1.91883  -0.00219   0.00000  -0.00031  -0.00110   1.91773
   A19        2.10520   0.00668   0.00000   0.01540   0.01546   2.12066
   A20        2.04732  -0.01194   0.00000  -0.03557  -0.03569   2.01163
   A21        2.13066   0.00526   0.00000   0.02017   0.02023   2.15089
   A22        2.08060  -0.00290   0.00000  -0.01501  -0.01596   2.06464
   A23        2.13827   0.00507   0.00000   0.02797   0.02986   2.16813
   A24        2.06431  -0.00217   0.00000  -0.01295  -0.01390   2.05041
   A25        1.92522  -0.00644   0.00000  -0.03663  -0.03672   1.88851
   A26        1.92230   0.00016   0.00000   0.00363   0.00357   1.92587
   A27        1.92220   0.00017   0.00000   0.00369   0.00362   1.92583
   A28        1.90349   0.00262   0.00000   0.01167   0.01158   1.91507
   A29        1.90352   0.00262   0.00000   0.01163   0.01155   1.91507
   A30        1.88650   0.00108   0.00000   0.00713   0.00709   1.89359
    D1        3.14144   0.00000   0.00000   0.00003   0.00003   3.14147
    D2       -0.00017   0.00000   0.00000   0.00004   0.00004  -0.00014
    D3       -1.01712  -0.00014   0.00000  -0.00364  -0.00378  -1.02089
    D4        2.12446  -0.00014   0.00000  -0.00363  -0.00377   2.12069
    D5        1.01679   0.00014   0.00000   0.00370   0.00384   1.02063
    D6       -2.12482   0.00014   0.00000   0.00371   0.00385  -2.12097
    D7       -0.00003   0.00000   0.00000   0.00004   0.00004   0.00001
    D8       -3.14153   0.00000   0.00000  -0.00004  -0.00004  -3.14157
    D9        3.14155   0.00000   0.00000   0.00005   0.00005   3.14159
   D10        0.00005   0.00000   0.00000  -0.00003  -0.00003   0.00001
   D11        1.02563  -0.00072   0.00000  -0.00672  -0.00697   1.01865
   D12       -1.02573   0.00072   0.00000   0.00681   0.00706  -1.01867
   D13        3.14154   0.00000   0.00000   0.00004   0.00004   3.14159
   D14       -2.11588  -0.00072   0.00000  -0.00679  -0.00705  -2.12293
   D15        2.11595   0.00072   0.00000   0.00673   0.00699   2.12294
   D16        0.00004   0.00000   0.00000  -0.00003  -0.00003   0.00001
   D17        0.00004   0.00000   0.00000   0.00000   0.00000   0.00004
   D18       -3.14158   0.00000   0.00000   0.00002   0.00002  -3.14156
   D19        2.11697   0.00055   0.00000   0.00302   0.00333   2.12030
   D20       -1.02464   0.00055   0.00000   0.00304   0.00334  -1.02130
   D21       -2.11692  -0.00055   0.00000  -0.00299  -0.00330  -2.12021
   D22        1.02465  -0.00055   0.00000  -0.00297  -0.00328   1.02137
   D23        0.00004   0.00000   0.00000   0.00003   0.00003   0.00007
   D24       -3.14157   0.00000   0.00000   0.00000   0.00000  -3.14158
   D25       -3.14158   0.00000   0.00000   0.00004   0.00004  -3.14153
   D26       -0.00001   0.00000   0.00000   0.00001   0.00001   0.00001
   D27        3.14106   0.00000   0.00000   0.00009   0.00009   3.14115
   D28       -1.04006  -0.00077   0.00000  -0.00659  -0.00657  -1.04664
   D29        1.03902   0.00077   0.00000   0.00678   0.00676   1.04578
   D30       -0.00056   0.00000   0.00000   0.00006   0.00006  -0.00050
   D31        2.10151  -0.00077   0.00000  -0.00662  -0.00660   2.09490
   D32       -2.10259   0.00077   0.00000   0.00675   0.00673  -2.09586
         Item               Value     Threshold  Converged?
 Maximum Force            0.016033     0.000450     NO 
 RMS     Force            0.004849     0.000300     NO 
 Maximum Displacement     0.303993     0.001800     NO 
 RMS     Displacement     0.103134     0.001200     NO 
 Predicted change in Energy=-3.025341D-03
 Lowest energy point so far.  Saving SCF results.
 GradGradGradGradGradGradGradGradGradGradGradGradGradGradGradGradGradGrad

 Leave Link  103 at Wed Sep  3 14:15:59 2025, MaxMem=  8053063680 cpu:         1.0
 (Enter /nexus/posix0/bmm/home/sucerqdl/sw/g09/l202.exe)
                          Input orientation:                          
 ---------------------------------------------------------------------
 Center     Atomic      Atomic             Coordinates (Angstroms)
 Number     Number       Type             X           Y           Z
 ---------------------------------------------------------------------
      1          6           0       -0.003461    0.074337   -0.000002
      2          1           0        0.175853   -1.006985   -0.000109
      3          1           0       -0.585356    0.349365    0.887094
      4          1           0       -0.585512    0.349521   -0.886946
      5          6           0        1.293530    0.896161   -0.000047
      6          8           0        1.249815    2.144210   -0.000074
      7          7           0        2.499714    0.251475   -0.000046
      8          1           0        2.603129   -0.756105   -0.000023
      9          6           0        3.732642    1.032848   -0.000058
     10          1           0        3.753648    1.690158    0.882893
     11          1           0        3.753653    1.690129   -0.883029
     12          6           0        4.970826    0.115740   -0.000046
     13          8           0        4.861891   -1.123957   -0.000073
     14          7           0        6.172521    0.760487   -0.000014
     15          1           0        6.173936    1.770142    0.000062
     16          6           0        7.482235    0.076937   -0.000018
     17          1           0        8.264837    0.838945   -0.000447
     18          1           0        7.582093   -0.555548    0.889928
     19          1           0        7.581716   -0.556157   -0.889567
 ---------------------------------------------------------------------
                    Distance matrix (angstroms):
                    1          2          3          4          5
     1  C    0.000000
     2  H    1.096089   0.000000
     3  H    1.095984   1.790601   0.000000
     4  H    1.095983   1.790605   1.774040   0.000000
     5  C    1.535442   2.207073   2.148539   2.148535   0.000000
     6  O    2.419727   3.329178   2.715951   2.715856   1.248814
     7  N    2.509435   2.642736   3.211582   3.211670   1.367662
     8  H    2.735680   2.440206   3.489337   3.489480   2.108324
     9  C    3.857099   4.100204   4.460863   4.460937   2.442939
    10  H    4.184048   4.566716   4.541443   4.874212   2.731702
    11  H    4.184068   4.566687   4.874216   4.541541   2.731711
    12  C    4.974459   4.924660   5.631408   5.631530   3.759196
    13  O    5.010745   4.687498   5.712289   5.712433   4.100498
    14  N    6.213981   6.251719   6.828242   6.828364   4.880877
    15  H    6.405934   6.609798   6.963725   6.963841   4.958044
    16  C    7.485697   7.386346   8.120789   8.120929   6.242691
    17  H    8.303576   8.296934   8.908049   8.908091   6.971541
    18  H    7.663509   7.473175   8.217427   8.407509   6.515024
    19  H    7.663143   7.472696   8.406995   8.217291   6.514733
                    6          7          8          9         10
     6  O    0.000000
     7  N    2.268193   0.000000
     8  H    3.200514   1.012873   0.000000
     9  C    2.720213   1.459677   2.115692   0.000000
    10  H    2.693506   2.102794   2.843842   1.100954   0.000000
    11  H    2.693512   2.102796   2.843847   1.100954   1.765922
    12  C    4.237996   2.474836   2.523114   1.540839   2.177130
    13  O    4.871142   2.733440   2.288520   2.434546   3.150727
    14  N    5.113485   3.707911   3.878223   2.455034   2.737656
    15  H    4.938309   3.975708   4.374081   2.550200   2.577514
    16  C    6.566329   4.985577   4.949711   3.869523   4.157448
    17  H    7.135423   5.794977   5.882102   4.536341   4.675005
    18  H    6.941077   5.222443   5.061850   4.258327   4.438495
    19  H    6.940905   5.222093   5.061383   4.258114   4.779294
                   11         12         13         14         15
    11  H    0.000000
    12  C    2.177124   0.000000
    13  O    3.150696   1.244475   0.000000
    14  N    2.737677   1.363734   2.295404   0.000000
    15  H    2.577600   2.045610   3.177621   1.009657   0.000000
    16  C    4.157454   2.511709   2.882420   1.477359   2.139764
    17  H    4.674853   3.372467   3.928488   2.093786   2.288885
    18  H    4.779477   2.839260   2.917994   2.123873   2.860700
    19  H    4.438458   2.838916   2.917369   2.123837   2.860936
                   16         17         18         19
    16  C    0.000000
    17  H    1.092301   0.000000
    18  H    1.096363   1.789837   0.000000
    19  H    1.096359   1.789832   1.779495   0.000000
 Stoichiometry    C5H10N2O2
 Framework group  C1[X(C5H10N2O2)]
 Deg. of freedom    51
 Full point group                 C1      NOp   1
 RotChk:  IX=0 Diff= 1.08D-03
 Largest Abelian subgroup         C1      NOp   1
 Largest concise Abelian subgroup C1      NOp   1
                         Standard orientation:                         
 ---------------------------------------------------------------------
 Center     Atomic      Atomic             Coordinates (Angstroms)
 Number     Number       Type             X           Y           Z
 ---------------------------------------------------------------------
      1          6           0        3.548749    0.813253    0.000037
      2          1           0        3.242320    1.865638   -0.000069
      3          1           0        4.159181    0.609257    0.887133
      4          1           0        4.159354    0.609120   -0.886906
      5          6           0        2.358503   -0.156747   -0.000008
      6          8           0        2.550087   -1.390778   -0.000035
      7          7           0        1.084309    0.340174   -0.000006
      8          1           0        0.861999    1.328348    0.000016
      9          6           0       -0.047128   -0.582055   -0.000018
     10          1           0        0.010055   -1.237210    0.882932
     11          1           0        0.010047   -1.237182   -0.882990
     12          6           0       -1.385439    0.181560   -0.000006
     13          8           0       -1.424461    1.425422   -0.000034
     14          7           0       -2.502086   -0.601300    0.000026
     15          1           0       -2.383617   -1.603982    0.000101
     16          6           0       -3.883692   -0.078084    0.000022
     17          1           0       -4.570288   -0.927618   -0.000407
     18          1           0       -4.057937    0.538072    0.889967
     19          1           0       -4.057635    0.538721   -0.889528
 ---------------------------------------------------------------------
 Rotational constants (GHZ):      5.0320399      0.6531309      0.5844524
 Leave Link  202 at Wed Sep  3 14:15:59 2025, MaxMem=  8053063680 cpu:         0.1
 (Enter /nexus/posix0/bmm/home/sucerqdl/sw/g09/l301.exe)
 Standard basis: 6-31+G (6D, 7F)
 Ernie: Thresh=  0.10000D-02 Tol=  0.10000D-05 Strict=F.
 There are   137 symmetry adapted cartesian basis functions of A   symmetry.
 There are   137 symmetry adapted basis functions of A   symmetry.
   137 basis functions,   274 primitive gaussians,   137 cartesian basis functions
    35 alpha electrons       35 beta electrons
       nuclear repulsion energy       443.3190237766 Hartrees.
 IExCor= 3226 DFT=T Ex+Corr=BMK ExCW=0 ScaHFX=  0.420000
 ScaDFX=  1.000000  1.000000  1.000000  1.000000 ScalE2=  1.000000  1.000000
 IRadAn=      0 IRanWt=     -1 IRanGd=            0 ICorTp=0 IEmpDi=  4
 NAtoms=   19 NActive=   19 NUniq=   19 SFac= 1.00D+00 NAtFMM=   60 NAOKFM=F Big=F
 Integral buffers will be    131072 words long.
 Raffenetti 2 integral format.
 Two-electron integral symmetry is turned on.
 Leave Link  301 at Wed Sep  3 14:15:59 2025, MaxMem=  8053063680 cpu:         0.6
 (Enter /nexus/posix0/bmm/home/sucerqdl/sw/g09/l302.exe)
 NPDir=0 NMtPBC=     1 NCelOv=     1 NCel=       1 NClECP=     1 NCelD=      1
         NCelK=      1 NCelE2=     1 NClLst=     1 CellRange=     0.0.
 One-electron integrals computed using PRISM.
 NBasis=   137 RedAO= T EigKep=  2.02D-05  NBF=   137
 NBsUse=   137 1.00D-06 EigRej= -1.00D+00 NBFU=   137
 Precomputing XC quadrature grid using
 IXCGrd= 4 IRadAn=           0 IRanWt=          -1 IRanGd=           0 AccXCQ= 0.00D+00.
 Generated NRdTot=       0 NPtTot=           0 NUsed=           0 NTot=          32
 NSgBfM=   137   137   137   137   137 MxSgAt=    19 MxSgA2=    19.
 Leave Link  302 at Wed Sep  3 14:15:59 2025, MaxMem=  8053063680 cpu:         1.9
 (Enter /nexus/posix0/bmm/home/sucerqdl/sw/g09/l303.exe)
 DipDrv:  MaxL=1.
 Leave Link  303 at Wed Sep  3 14:15:59 2025, MaxMem=  8053063680 cpu:         0.5
 (Enter /nexus/posix0/bmm/home/sucerqdl/sw/g09/l401.exe)
 Initial guess from the checkpoint file:  "G-stretched01.chk"
 B after Tr=     0.000000    0.000000    0.000000
         Rot=    0.999998   -0.000003    0.000001    0.001974 Ang=  -0.23 deg.
 Guess basis will be translated and rotated to current coordinates.
 JPrj=2 DoOrth=T DoCkMO=T.
 Generating alternative initial guess.
 ExpMin= 4.38D-02 ExpMax= 5.48D+03 ExpMxC= 8.25D+02 IAcc=2 IRadAn=         4 AccDes= 0.00D+00
 Harris functional with IExCor= 1009 and IRadAn=       4 diagonalized for initial guess.
 HarFok:  IExCor= 1009 AccDes= 0.00D+00 IRadAn=         4 IDoV= 1 UseB2=F ITyADJ=14
 ICtDFT=  3500011 ScaDFX=  1.000000  1.000000  1.000000  1.000000
 FoFCou: FMM=F IPFlag=           0 FMFlag=      100000 FMFlg1=           0
         NFxFlg=           0 DoJE=T BraDBF=F KetDBF=T FulRan=T
         wScrn=  0.000000 ICntrl=     500 IOpCl=  0 I1Cent=   200000004 NGrid=           0
         NMat0=    1 NMatS0=      1 NMatT0=    0 NMatD0=    1 NMtDS0=    0 NMtDT0=    0
 Petite list used in FoFCou.
 Harris En= -456.013125393647    
 Leave Link  401 at Wed Sep  3 14:16:00 2025, MaxMem=  8053063680 cpu:         3.7
 (Enter /nexus/posix0/bmm/home/sucerqdl/sw/g09/l502.exe)
 Closed shell SCF:
 Using DIIS extrapolation, IDIIS=  1040.
 Integral symmetry usage will be decided dynamically.
 Keep R1 ints in memory in canonical form, NReq=46076400.
 IVT=       78102 IEndB=       78102 NGot=  8053063680 MDV=  8008301248
 LenX=  8008301248 LenY=  8008282038
 Requested convergence on RMS density matrix=1.00D-08 within 128 cycles.
 Requested convergence on MAX density matrix=1.00D-06.
 Requested convergence on             energy=1.00D-06.
 No special actions if energy rises.
 FoFCou: FMM=F IPFlag=           0 FMFlag=           0 FMFlg1=           0
         NFxFlg=           0 DoJE=F BraDBF=F KetDBF=F FulRan=T
         wScrn=  0.000000 ICntrl=     600 IOpCl=  0 I1Cent=           0 NGrid=           0
         NMat0=    1 NMatS0=   9453 NMatT0=    0 NMatD0=    1 NMtDS0=    0 NMtDT0=    0
 Symmetry not used in FoFCou.

 Cycle   1  Pass 1  IDiag  1:
 E= -456.146087139854    
 DIIS: error= 6.88D-03 at cycle   1 NSaved=   1.
 NSaved= 1 IEnMin= 1 EnMin= -456.146087139854     IErMin= 1 ErrMin= 6.88D-03
 ErrMax= 6.88D-03  0.00D+00 EMaxC= 1.00D-01 BMatC= 8.10D-03 BMatP= 8.10D-03
 IDIUse=3 WtCom= 9.31D-01 WtEn= 6.88D-02
 Coeff-Com:  0.100D+01
 Coeff-En:   0.100D+01
 Coeff:      0.100D+01
 Gap=     0.509 Goal=   None    Shift=    0.000
 GapD=    0.509 DampG=2.000 DampE=1.000 DampFc=2.0000 IDamp=-1.
 RMSDP=4.91D-03 MaxDP=2.81D-01              OVMax= 2.54D-02

 Cycle   2  Pass 1  IDiag  1:
 E= -456.158374531840     Delta-E=       -0.012287391986 Rises=F Damp=F
 DIIS: error= 1.24D-03 at cycle   2 NSaved=   2.
 NSaved= 2 IEnMin= 2 EnMin= -456.158374531840     IErMin= 2 ErrMin= 1.24D-03
 ErrMax= 1.24D-03  0.00D+00 EMaxC= 1.00D-01 BMatC= 2.96D-04 BMatP= 8.10D-03
 IDIUse=3 WtCom= 9.88D-01 WtEn= 1.24D-02
 Coeff-Com: -0.441D-01 0.104D+01
 Coeff-En:   0.000D+00 0.100D+01
 Coeff:     -0.435D-01 0.104D+01
 Gap=     0.323 Goal=   None    Shift=    0.000
 RMSDP=6.35D-04 MaxDP=2.69D-02 DE=-1.23D-02 OVMax= 1.06D-02

 Cycle   3  Pass 1  IDiag  1:
 E= -456.158379469204     Delta-E=       -0.000004937364 Rises=F Damp=F
 DIIS: error= 2.17D-03 at cycle   3 NSaved=   3.
 NSaved= 3 IEnMin= 3 EnMin= -456.158379469204     IErMin= 2 ErrMin= 1.24D-03
 ErrMax= 2.17D-03  0.00D+00 EMaxC= 1.00D-01 BMatC= 5.13D-04 BMatP= 2.96D-04
 IDIUse=3 WtCom= 1.77D-01 WtEn= 8.23D-01
 Coeff-Com: -0.607D-01 0.628D+00 0.432D+00
 Coeff-En:   0.000D+00 0.496D+00 0.504D+00
 Coeff:     -0.107D-01 0.519D+00 0.491D+00
 Gap=     0.325 Goal=   None    Shift=    0.000
 RMSDP=4.32D-04 MaxDP=1.76D-02 DE=-4.94D-06 OVMax= 9.06D-03

 Cycle   4  Pass 1  IDiag  1:
 E= -456.158729156211     Delta-E=       -0.000349687007 Rises=F Damp=F
 DIIS: error= 9.30D-04 at cycle   4 NSaved=   4.
 NSaved= 4 IEnMin= 4 EnMin= -456.158729156211     IErMin= 4 ErrMin= 9.30D-04
 ErrMax= 9.30D-04  0.00D+00 EMaxC= 1.00D-01 BMatC= 8.22D-05 BMatP= 2.96D-04
 IDIUse=3 WtCom= 9.91D-01 WtEn= 9.30D-03
 Coeff-Com: -0.216D-01 0.142D+00 0.307D+00 0.573D+00
 Coeff-En:   0.000D+00 0.000D+00 0.144D+00 0.856D+00
 Coeff:     -0.214D-01 0.141D+00 0.305D+00 0.575D+00
 Gap=     0.325 Goal=   None    Shift=    0.000
 RMSDP=1.63D-04 MaxDP=6.32D-03 DE=-3.50D-04 OVMax= 3.02D-03

 Cycle   5  Pass 1  IDiag  1:
 E= -456.158792318566     Delta-E=       -0.000063162355 Rises=F Damp=F
 DIIS: error= 9.53D-05 at cycle   5 NSaved=   5.
 NSaved= 5 IEnMin= 5 EnMin= -456.158792318566     IErMin= 5 ErrMin= 9.53D-05
 ErrMax= 9.53D-05  0.00D+00 EMaxC= 1.00D-01 BMatC= 2.70D-06 BMatP= 8.22D-05
 IDIUse=1 WtCom= 1.00D+00 WtEn= 0.00D+00
 Coeff-Com: -0.147D-02-0.238D-01 0.857D-01 0.281D+00 0.658D+00
 Coeff:     -0.147D-02-0.238D-01 0.857D-01 0.281D+00 0.658D+00
 Gap=     0.325 Goal=   None    Shift=    0.000
 RMSDP=2.39D-05 MaxDP=3.71D-04 DE=-6.32D-05 OVMax= 3.10D-04

 Cycle   6  Pass 1  IDiag  1:
 E= -456.158794452311     Delta-E=       -0.000002133745 Rises=F Damp=F
 DIIS: error= 3.21D-05 at cycle   6 NSaved=   6.
 NSaved= 6 IEnMin= 6 EnMin= -456.158794452311     IErMin= 6 ErrMin= 3.21D-05
 ErrMax= 3.21D-05  0.00D+00 EMaxC= 1.00D-01 BMatC= 1.39D-07 BMatP= 2.70D-06
 IDIUse=1 WtCom= 1.00D+00 WtEn= 0.00D+00
 Coeff-Com:  0.467D-03-0.183D-01 0.213D-01 0.978D-01 0.293D+00 0.606D+00
 Coeff:      0.467D-03-0.183D-01 0.213D-01 0.978D-01 0.293D+00 0.606D+00
 Gap=     0.325 Goal=   None    Shift=    0.000
 RMSDP=8.49D-06 MaxDP=4.58D-04 DE=-2.13D-06 OVMax= 8.84D-05

 Cycle   7  Pass 1  IDiag  1:
 E= -456.158794574467     Delta-E=       -0.000000122157 Rises=F Damp=F
 DIIS: error= 8.53D-06 at cycle   7 NSaved=   7.
 NSaved= 7 IEnMin= 7 EnMin= -456.158794574467     IErMin= 7 ErrMin= 8.53D-06
 ErrMax= 8.53D-06  0.00D+00 EMaxC= 1.00D-01 BMatC= 1.08D-08 BMatP= 1.39D-07
 IDIUse=1 WtCom= 1.00D+00 WtEn= 0.00D+00
 Coeff-Com:  0.314D-03-0.510D-02 0.816D-04 0.143D-01 0.546D-01 0.243D+00
 Coeff-Com:  0.693D+00
 Coeff:      0.314D-03-0.510D-02 0.816D-04 0.143D-01 0.546D-01 0.243D+00
 Coeff:      0.693D+00
 Gap=     0.325 Goal=   None    Shift=    0.000
 RMSDP=3.37D-06 MaxDP=1.06D-04 DE=-1.22D-07 OVMax= 4.59D-05

 Cycle   8  Pass 1  IDiag  1:
 E= -456.158794582277     Delta-E=       -0.000000007810 Rises=F Damp=F
 DIIS: error= 5.08D-06 at cycle   8 NSaved=   8.
 NSaved= 8 IEnMin= 8 EnMin= -456.158794582277     IErMin= 8 ErrMin= 5.08D-06
 ErrMax= 5.08D-06  0.00D+00 EMaxC= 1.00D-01 BMatC= 3.90D-09 BMatP= 1.08D-08
 IDIUse=1 WtCom= 1.00D+00 WtEn= 0.00D+00
 Coeff-Com:  0.143D-03-0.133D-02-0.207D-02-0.509D-03 0.399D-02 0.844D-01
 Coeff-Com:  0.439D+00 0.477D+00
 Coeff:      0.143D-03-0.133D-02-0.207D-02-0.509D-03 0.399D-02 0.844D-01
 Coeff:      0.439D+00 0.477D+00
 Gap=     0.325 Goal=   None    Shift=    0.000
 RMSDP=1.83D-06 MaxDP=1.04D-04 DE=-7.81D-09 OVMax= 1.61D-05

 Cycle   9  Pass 1  IDiag  1:
 E= -456.158794585411     Delta-E=       -0.000000003133 Rises=F Damp=F
 DIIS: error= 8.18D-07 at cycle   9 NSaved=   9.
 NSaved= 9 IEnMin= 9 EnMin= -456.158794585411     IErMin= 9 ErrMin= 8.18D-07
 ErrMax= 8.18D-07  0.00D+00 EMaxC= 1.00D-01 BMatC= 1.54D-10 BMatP= 3.90D-09
 IDIUse=1 WtCom= 1.00D+00 WtEn= 0.00D+00
 Coeff-Com:  0.340D-05 0.453D-03-0.112D-02-0.335D-02-0.976D-02-0.115D-01
 Coeff-Com:  0.647D-01 0.180D+00 0.781D+00
 Coeff:      0.340D-05 0.453D-03-0.112D-02-0.335D-02-0.976D-02-0.115D-01
 Coeff:      0.647D-01 0.180D+00 0.781D+00
[...]
 (Enter /nexus/posix0/bmm/home/sucerqdl/sw/g09/l202.exe)
                          Input orientation:                          
 ---------------------------------------------------------------------
 Center     Atomic      Atomic             Coordinates (Angstroms)
 Number     Number       Type             X           Y           Z
 ---------------------------------------------------------------------
      1          6           0       -0.003210    0.074351    0.000204
      2          1           0        0.180210   -1.006183    0.000400
      3          1           0       -0.585776    0.347020    0.887773
      4          1           0       -0.585826    0.346680   -0.887439
      5          6           0        1.290078    0.901043    0.000010
      6          8           0        1.241880    2.148435   -0.000071
      7          7           0        2.497039    0.255109   -0.000097
      8          1           0        2.587514   -0.752945   -0.000017
      9          6           0        3.734501    1.029374   -0.000322
     10          1           0        3.758928    1.687084    0.882165
     11          1           0        3.758894    1.686657   -0.883133
     12          6           0        4.973149    0.112414   -0.000158
     13          8           0        4.870729   -1.127512   -0.000097
     14          7           0        6.173580    0.761434   -0.000102
     15          1           0        6.173564    1.771145   -0.000067
     16          6           0        7.482486    0.078140    0.000062
     17          1           0        8.267000    0.839398    0.000899
     18          1           0        7.581023   -0.555506    0.889393
     19          1           0        7.581946   -0.554435   -0.889927
 ---------------------------------------------------------------------
                    Distance matrix (angstroms):
                    1          2          3          4          5
     1  C    0.000000
     2  H    1.095992   0.000000
     3  H    1.096134   1.790342   0.000000
     4  H    1.096136   1.790338   1.775212   0.000000
     5  C    1.534931   2.206654   2.147998   2.147999   0.000000
     6  O    2.419106   3.328477   2.715455   2.715557   1.248323
     7  N    2.506775   2.637908   3.209442   3.209333   1.368937
     8  H    2.719608   2.420587   3.473883   3.473727   2.102145
     9  C    3.857791   4.095910   4.463084   4.462989   2.447789
    10  H    4.187175   4.564911   4.546675   4.879043   2.737019
    11  H    4.187270   4.564975   4.879231   4.546663   2.737185
    12  C    4.976504   4.921740   5.634280   5.634213   3.766557
    13  O    5.019936   4.692088   5.721539   5.721417   4.115349
    14  N    6.214887   6.248597   6.830005   6.830005   4.885497
    15  H    6.405595   6.605592   6.964559   6.964617   4.960395
    16  C    7.485697   7.382344   8.121403   8.121418   6.246846
    17  H    8.305520   8.294718   8.910703   8.910917   6.977194
    18  H    7.662112   7.467627   8.216518   8.406456   6.518322
    19  H    7.663047   7.468766   8.407409   8.217330   6.519050
                    6          7          8          9         10
     6  O    0.000000
     7  N    2.271588   0.000000
     8  H    3.198239   1.012105   0.000000
     9  C    2.732299   1.459725   2.119490   0.000000
    10  H    2.706790   2.102689   2.846786   1.100892   0.000000
    11  H    2.707100   2.102702   2.846696   1.100895   1.765298
    12  C    4.250618   2.480218   2.537735   1.541124   2.175411
    13  O    4.888801   2.747006   2.313735   2.437862   3.152211
    14  N    5.123030   3.711242   3.892713   2.453752   2.732356
    15  H    4.946095   3.976833   4.385292   2.549364   2.572133
    16  C    6.575050   4.988587   4.965023   3.866813   4.151107
    17  H    7.146040   5.799469   5.898484   4.536479   4.670965
    18  H    6.948898   5.224479   5.075940   4.254312   4.431442
    19  H    6.949373   5.225269   5.076977   4.254725   4.772859
                   11         12         13         14         15
    11  H    0.000000
    12  C    2.175385   0.000000
    13  O    3.152059   1.244149   0.000000
    14  N    2.732489   1.364647   2.294676   0.000000
    15  H    2.572465   2.047532   3.177986   1.009712   0.000000
    16  C    4.151205   2.509571   2.876608   1.476525   2.139987
    17  H    4.671443   3.373123   3.924715   2.094871   2.291425
    18  H    4.772611   2.835212   2.909309   2.122835   2.861011
    19  H    4.431509   2.835877   2.910483   2.122921   2.860719
                   16         17         18         19
    16  C    0.000000
    17  H    1.093149   0.000000
    18  H    1.096415   1.790459   0.000000
    19  H    1.096415   1.790430   1.779322   0.000000
 Stoichiometry    C5H10N2O2
 Framework group  C1[X(C5H10N2O2)]
 Deg. of freedom    51
 Full point group                 C1      NOp   1
 RotChk:  IX=2 Diff= 1.57D-16
 Largest Abelian subgroup         C1      NOp   1
 Largest concise Abelian subgroup C1      NOp   1
                         Standard orientation:                         
 ---------------------------------------------------------------------
 Center     Atomic      Atomic             Coordinates (Angstroms)
 Number     Number       Type             X           Y           Z
 ---------------------------------------------------------------------
      1          6           0        3.547869    0.816328    0.000260
      2          1           0        3.236656    1.867206    0.000456
      3          1           0        4.158842    0.615221    0.887829
      4          1           0        4.158851    0.615564   -0.887383
      5          6           0        2.362624   -0.158969    0.000066
      6          8           0        2.559521   -1.391666   -0.000015
      7          7           0        1.087130    0.338124   -0.000041
      8          1           0        0.876856    1.328145    0.000039
      9          6           0       -0.048954   -0.578452   -0.000266
     10          1           0        0.005381   -1.234369    0.882221
     11          1           0        0.005364   -1.233941   -0.883077
     12          6           0       -1.388291    0.183939   -0.000103
     13          8           0       -1.434757    1.427219   -0.000041
     14          7           0       -2.502574   -0.603865   -0.000046
     15          1           0       -2.381913   -1.606341   -0.000011
     16          6           0       -3.883747   -0.081861    0.000118
     17          1           0       -4.571681   -0.931402    0.000955
     18          1           0       -4.057289    0.535472    0.889449
     19          1           0       -4.058077    0.534298   -0.889872
 ---------------------------------------------------------------------
 Rotational constants (GHZ):      5.0225597      0.6517722      0.5832375
 Leave Link  202 at Wed Sep  3 14:16:29 2025, MaxMem=  8053063680 cpu:         0.0
 (Enter /nexus/posix0/bmm/home/sucerqdl/sw/g09/l601.exe)
 Copying SCF densities to generalized density rwf, IOpCl= 0 IROHF=0.

 **********************************************************************

            Population analysis using the SCF density.

 **********************************************************************

 Orbital symmetries:
       Occupied  (A) (A) (A) (A) (A) (A) (A) (A) (A) (A) (A) (A)
                 (A) (A) (A) (A) (A) (A) (A) (A) (A) (A) (A) (A)
                 (A) (A) (A) (A) (A) (A) (A) (A) (A) (A) (A)
       Virtual   (A) (A) (A) (A) (A) (A) (A) (A) (A) (A) (A) (A)
                 (A) (A) (A) (A) (A) (A) (A) (A) (A) (A) (A) (A)
                 (A) (A) (A) (A) (A) (A) (A) (A) (A) (A) (A) (A)
                 (A) (A) (A) (A) (A) (A) (A) (A) (A) (A) (A) (A)
                 (A) (A) (A) (A) (A) (A) (A) (A) (A) (A) (A) (A)
                 (A) (A) (A) (A) (A) (A) (A) (A) (A) (A) (A) (A)
                 (A) (A) (A) (A) (A) (A) (A) (A) (A) (A) (A) (A)
                 (A) (A) (A) (A) (A) (A) (A) (A) (A) (A) (A) (A)
                 (A) (A) (A) (A) (A) (A)
 The electronic state is 1-A.
 Alpha  occ. eigenvalues --  -19.54153 -19.51681 -14.72758 -14.71121 -10.62177
 Alpha  occ. eigenvalues --  -10.60349 -10.53811 -10.52567 -10.48359  -1.15825
 Alpha  occ. eigenvalues --   -1.13569  -1.02525  -1.00917  -0.84362  -0.80722
 Alpha  occ. eigenvalues --   -0.76267  -0.66713  -0.65491  -0.59937  -0.54837
 Alpha  occ. eigenvalues --   -0.53670  -0.53365  -0.51141  -0.51071  -0.48592
 Alpha  occ. eigenvalues --   -0.47047  -0.45669  -0.44857  -0.43947  -0.43343
 Alpha  occ. eigenvalues --   -0.39860  -0.32593  -0.31631  -0.29894  -0.29627
 Alpha virt. eigenvalues --    0.02872   0.02970   0.04696   0.04775   0.05055
 Alpha virt. eigenvalues --    0.06698   0.06810   0.08024   0.09085   0.09175
 Alpha virt. eigenvalues --    0.09834   0.11001   0.11519   0.12221   0.13380
 Alpha virt. eigenvalues --    0.13659   0.15163   0.15755   0.15907   0.17618
 Alpha virt. eigenvalues --    0.18973   0.19805   0.20411   0.21006   0.21862
 Alpha virt. eigenvalues --    0.22263   0.22795   0.23821   0.24018   0.24410
 Alpha virt. eigenvalues --    0.26410   0.27192   0.27668   0.28190   0.28655
 Alpha virt. eigenvalues --    0.29488   0.29855   0.30414   0.30924   0.32293
 Alpha virt. eigenvalues --    0.33327   0.33810   0.35345   0.36273   0.36846
 Alpha virt. eigenvalues --    0.37796   0.39234   0.40800   0.41056   0.44113
 Alpha virt. eigenvalues --    0.45030   0.46467   0.47975   0.50038   0.54418
 Alpha virt. eigenvalues --    0.57014   0.70224   0.70520   0.71494   0.72056
 Alpha virt. eigenvalues --    0.72930   0.74105   0.78352   0.78540   0.79968
 Alpha virt. eigenvalues --    0.81822   0.86945   0.88843   0.91465   0.93818
 Alpha virt. eigenvalues --    0.97426   0.98018   1.01354   1.06391   1.09970
 Alpha virt. eigenvalues --    1.10408   1.11892   1.12283   1.14817   1.16681
 Alpha virt. eigenvalues --    1.18293   1.20170   1.21952   1.24835   1.26841
 Alpha virt. eigenvalues --    1.34304   1.35051   1.35072   1.37693   1.37773
 Alpha virt. eigenvalues --    1.45269   1.45930   1.49355   1.52906   1.53674
 Alpha virt. eigenvalues --    1.56293   1.61147   1.68143   1.75208   1.86720
 Alpha virt. eigenvalues --    2.11732   2.14957
          Condensed to atoms (all electrons):
               1          2          3          4          5          6
     1  C    6.575468   0.380241   0.425065   0.425069  -0.463593  -0.080848
     2  H    0.380241   0.528307  -0.026349  -0.026349  -0.061484   0.006054
     3  H    0.425065  -0.026349   0.466551  -0.021372  -0.069603  -0.004753
     4  H    0.425069  -0.026349  -0.021372   0.466554  -0.069602  -0.004752
     5  C   -0.463593  -0.061484  -0.069603  -0.069602   6.055652   0.418214
     6  O   -0.080848   0.006054  -0.004753  -0.004752   0.418214   8.507353
     7  N   -0.350530   0.008236   0.003344   0.003341  -0.211477  -0.250374
     8  H    0.010114   0.001730   0.000033   0.000033   0.021720   0.004163
     9  C   -0.344295  -0.001070  -0.005310  -0.005315  -0.948530  -0.062182
    10  H   -0.001259  -0.000004   0.000033  -0.000012   0.003394   0.001545
    11  H   -0.001251  -0.000004  -0.000012   0.000033   0.003383   0.001549
    12  C    0.204106   0.000947  -0.001384  -0.001384   0.596800   0.037717
    13  O    0.001811  -0.000063   0.000011   0.000011   0.014656  -0.000769
    14  N    0.002446   0.000058  -0.000007  -0.000007   0.021389  -0.002864
    15  H    0.000073   0.000000   0.000000   0.000000   0.000286   0.000070
    16  C    0.001785   0.000033  -0.000001  -0.000001   0.008138  -0.000452
    17  H   -0.000005   0.000000   0.000000   0.000000  -0.000083   0.000000
    18  H    0.000017   0.000000   0.000000   0.000000   0.000107   0.000000
    19  H    0.000017   0.000000   0.000000   0.000000   0.000107   0.000000
               7          8          9         10         11         12
     1  C   -0.350530   0.010114  -0.344295  -0.001259  -0.001251   0.204106
     2  H    0.008236   0.001730  -0.001070  -0.000004  -0.000004   0.000947
     3  H    0.003344   0.000033  -0.005310   0.000033  -0.000012  -0.001384
     4  H    0.003341   0.000033  -0.005315  -0.000012   0.000033  -0.001384
     5  C   -0.211477   0.021720  -0.948530   0.003394   0.003383   0.596800
     6  O   -0.250374   0.004163  -0.062182   0.001545   0.001549   0.037717
     7  N    8.055647   0.261672   0.354257  -0.050204  -0.050197  -0.251970
     8  H    0.261672   0.293717  -0.114475   0.002254   0.002254   0.060428
     9  C    0.354257  -0.114475  12.821644   0.339379   0.339411  -4.844275
    10  H   -0.050204   0.002254   0.339379   0.484041  -0.036098  -0.006608
    11  H   -0.050197   0.002254   0.339411  -0.036098   0.484039  -0.006641
    12  C   -0.251970   0.060428  -4.844275  -0.006608  -0.006641   8.901394
    13  O    0.012243   0.014934   0.065359   0.000621   0.000617   0.240175
    14  N    0.008399   0.006156  -0.854986   0.013497   0.013495   0.401890
    15  H    0.001105  -0.000020  -0.007730  -0.000082  -0.000084   0.014647
    16  C   -0.002249   0.002055  -0.148320   0.004054   0.004046  -0.091118
    17  H    0.000025   0.000000  -0.004511   0.000001   0.000001   0.019193
    18  H   -0.000127   0.000000   0.000108   0.000024  -0.000013  -0.019299
    19  H   -0.000126   0.000000   0.000094  -0.000013   0.000024  -0.019263
              13         14         15         16         17         18
     1  C    0.001811   0.002446   0.000073   0.001785  -0.000005   0.000017
     2  H   -0.000063   0.000058   0.000000   0.000033   0.000000   0.000000
     3  H    0.000011  -0.000007   0.000000  -0.000001   0.000000   0.000000
     4  H    0.000011  -0.000007   0.000000  -0.000001   0.000000   0.000000
     5  C    0.014656   0.021389   0.000286   0.008138  -0.000083   0.000107
     6  O   -0.000769  -0.002864   0.000070  -0.000452   0.000000   0.000000
     7  N    0.012243   0.008399   0.001105  -0.002249   0.000025  -0.000127
     8  H    0.014934   0.006156  -0.000020   0.002055   0.000000   0.000000
     9  C    0.065359  -0.854986  -0.007730  -0.148320  -0.004511   0.000108
    10  H    0.000621   0.013497  -0.000082   0.004054   0.000001   0.000024
    11  H    0.000617   0.013495  -0.000084   0.004046   0.000001  -0.000013
    12  C    0.240175   0.401890   0.014647  -0.091118   0.019193  -0.019299
    13  O    8.500118  -0.245511   0.005159  -0.018635   0.001394   0.001028
    14  N   -0.245511   7.950535   0.281394   0.157890  -0.050715  -0.049128
    15  H    0.005159   0.281394   0.333072  -0.023168  -0.004470   0.002155
    16  C   -0.018635   0.157890  -0.023168   5.285349   0.382751   0.412009
    17  H    0.001394  -0.050715  -0.004470   0.382751   0.522058  -0.026697
    18  H    0.001028  -0.049128   0.002155   0.412009  -0.026697   0.486599
    19  H    0.001025  -0.049121   0.002153   0.411970  -0.026714  -0.031683
              19
     1  C    0.000017
     2  H    0.000000
     3  H    0.000000
     4  H    0.000000
     5  C    0.000107
     6  O    0.000000
     7  N   -0.000126
     8  H    0.000000
     9  C    0.000094
    10  H   -0.000013
    11  H    0.000024
    12  C   -0.019263
    13  O    0.001025
    14  N   -0.049121
    15  H    0.002153
    16  C    0.411970
    17  H   -0.026714
    18  H   -0.031683
    19  H    0.486667
 Mulliken charges:
               1
     1  C   -0.784430
     2  H    0.189717
     3  H    0.233753
     4  H    0.233753
     5  C    0.680527
     6  O   -0.569671
     7  N   -0.541013
     8  H    0.433232
     9  C   -0.579251
    10  H    0.245439
    11  H    0.245448
    12  C    0.764646
    13  O   -0.594184
    14  N   -0.604810
    15  H    0.395442
    16  C   -0.386136
    17  H    0.187772
    18  H    0.224900
    19  H    0.224865
 Sum of Mulliken charges =   0.00000
 Mulliken charges with hydrogens summed into heavy atoms:
               1
     1  C   -0.127206
     5  C    0.680527
     6  O   -0.569671
     7  N   -0.107781
     9  C   -0.088364
    12  C    0.764646
    13  O   -0.594184
    14  N   -0.209368
    16  C    0.251402
 Electronic spatial extent (au):  <R**2>=           1894.2357
 Charge=              0.0000 electrons
 Dipole moment (field-independent basis, Debye):
    X=             -3.0750    Y=             -0.3216    Z=              0.0003  Tot=              3.0917
 Quadrupole moment (field-independent basis, Debye-Ang):
   XX=            -46.0676   YY=            -60.7685   ZZ=            -54.9331
   XY=             18.2071   XZ=             -0.0001   YZ=              0.0003
 Traceless Quadrupole moment (field-independent basis, Debye-Ang):
   XX=              7.8554   YY=             -6.8454   ZZ=             -1.0100
   XY=             18.2071   XZ=             -0.0001   YZ=              0.0003
 Octapole moment (field-independent basis, Debye-Ang**2):
  XXX=            -47.5285  YYY=             -3.2727  ZZZ=             -0.0022  XYY=            -13.5844
  XXY=             16.4746  XXZ=              0.0065  XZZ=              1.7739  YZZ=             -0.3898
  YYZ=              0.0027  XYZ=              0.0003
 Hexadecapole moment (field-independent basis, Debye-Ang**3):
 XXXX=          -1867.9552 YYYY=           -307.1426 ZZZZ=            -73.9735 XXXY=            104.7344
 XXXZ=             -0.0236 YYYX=             54.0466 YYYZ=             -0.0072 ZZZX=             -0.0109
 ZZZY=             -0.0070 XXYY=           -436.7115 XXZZ=           -357.8825 YYZZ=            -62.8738
 XXYZ=             -0.0102 YYXZ=             -0.0117 ZZXY=             -7.1673
 N-N= 4.430575743679D+02 E-N=-1.951089876967D+03  KE= 4.533749599352D+02
 No NMR shielding tensors so no spin-rotation constants.
 Leave Link  601 at Wed Sep  3 14:16:30 2025, MaxMem=  8053063680 cpu:         1.3
 (Enter /nexus/posix0/bmm/home/sucerqdl/sw/g09/l9999.exe)
 1\1\GINC-SLURM-ORBIT-CPU1\FOpt\RBMK\6-31+G\C5H10N2O2\SUCERQDL\03-Sep-2
 025\0\\#P bmk/6-31+g opt(modredun,calcfc)\\Gaussian input prepared by 
 ASE\\0,1\C,-0.003209679,0.0743514952,0.0002042413\H,0.1802097683,-1.00
 61831903,0.0004004133\H,-0.5857763849,0.3470200172,0.8877732393\H,-0.5
 858261238,0.3466803473,-0.8874386297\C,1.2900780357,0.9010431525,0.000
 0102874\O,1.2418802108,2.1484353332,-0.000071381\N,2.4970394247,0.2551
 086671,-0.0000971042\H,2.5875139779,-0.7529445889,-0.0000168062\C,3.73
 45008841,1.0293736179,-0.0003221171\H,3.7589275617,1.6870837122,0.8821
 648651\H,3.7588935112,1.6866566688,-0.883132684\C,4.9731491638,0.11241
 40593,-0.0001584913\O,4.8707289215,-1.1275117609,-0.0000973665\N,6.173
 5803429,0.7614336699,-0.0001018652\H,6.1735641897,1.7711454967,-0.0000
 665345\C,7.4824861967,0.078140019,0.0000624509\H,8.2669997344,0.839397
 8285,0.0008985775\H,7.5810230915,-0.5555057867,0.8893934754\H,7.581946
 1458,-0.5544347239,-0.8899274896\\Version=ES64L-G09RevD.01\State=1-A\H
 F=-456.1588324\RMSD=8.624e-09\RMSF=2.099e-03\Dipole=1.2162372,-0.01891
 96,0.0001035\Quadrupole=8.895927,-8.1450192,-0.7509077,11.8534617,0.00
 00839,-0.0002235\PG=C01 [X(C5H10N2O2)]\\@


 I MET A TRAVELLER FROM AN ANTIQUE LAND
 WHO SAID... TWO VAST AND TRUNKLESS LEGS OF STONE
 STAND IN THE DESERT..... NEAR THEM,  ON THE SAND,
 HALF SUNK,  A SHATTERED VISAGE LIES,  WHOSE FROWN,
 AND WRINKLED LIP,  AND SNEER OF COLD COMMAND
 TELL THAT ITS SCULPTOR WELL THOSE PASSIONS READ
 WHICH YET SURVIVE,  STAMPED ON THESE LIFELESS THINGS
 THE HAND THAT MOCKED THEM,  AND THE HEART THAT FED-
 AND ON THE PEDESTAL THESE WORDS APPEAR 
 MY NAME IS OZYMANDIAS, KING OF KINGS--   
 LOOK ON MY WORKS YE MIGHTY AND DESPAIR. 
 NOTHING BESIDE REMAINS,  ROUND THE DECAY 
 OF THAT COLOSSAL WRECK,  BOUNDLESS AND BARE
 THE LONE AND LEVEL SANDS STRETCH FAR AWAY.
                                    SHELLEY
 Job cpu time:       0 days  0 hours 14 minutes 52.1 seconds.
 File lengths (MBytes):  RWF=    132 Int=      0 D2E=      0 Chk=      3 Scr=      2
 Normal termination of Gaussian 09 at Wed Sep  3 14:16:30 2025.
