 Entering Gaussian System, Link 0=g09
 Input=G-stretched04.com
 Output=G-stretched04.log
 Initial command:
 /nexus/posix0/bmm/home/sucerqdl/sw/g09/l1.exe "/nexus/posix0/bmm/home/sucerqdl/sw/g09/g09_scratch/Gau-2873549.inp" -scrdir="/nexus/posix0/bmm/home/sucerqdl/sw/g09/g09_scratch/"
 Entering Link 1 = /nexus/posix0/bmm/home/sucerqdl/sw/g09/l1.exe PID=   2873551.
  
 Copyright (c) 1988,1990,1992,1993,1995,1998,2003,2009,2013,
            Gaussian, Inc.  All Rights Reserved.
  
 This is part of the Gaussian(R) 09 program.  It is based on
 the Gaussian(R) 03 system (copyright 2003, Gaussian, Inc.),
 the Gaussian(R) 98 system (copyright 1998, Gaussian, Inc.),
 the Gaussian(R) 94 system (copyright 1995, Gaussian, Inc.),
 the Gaussian 92(TM) system (copyright 1992, Gaussian, Inc.),
 the Gaussian 90(TM) system (copyright 1990, Gaussian, Inc.),
 the Gaussian 88(TM) system (copyright 1988, Gaussian, Inc.),
 the Gaussian 86(TM) system (copyright 1986, Carnegie Mellon
 University), and the Gaussian 82(TM) system (copyright 1983,
 Carnegie Mellon University). Gaussian is a federally registered
 trademark of Gaussian, Inc.
  
 This software contains proprietary and confidential information,
 including trade secrets, belonging to Gaussian, Inc.
  
 This software is provided under written license and may be
 used, copied, transmitted, or stored only in accord with that
 written license.
  
 The following legend is applicable only to US Government
 contracts under FAR:
  
                    RESTRICTED RIGHTS LEGEND
  
 Use, reproduction and disclosure by the US Government is
 subject to restrictions as set forth in subparagraphs (a)
 and (c) of the Commercial Computer Software - Restricted
 Rights clause in FAR 52.227-19.
  
 Gaussian, Inc.
 340 Quinnipiac St., Bldg. 40, Wallingford CT 06492
  
  
 ---------------------------------------------------------------
 Warning -- This program may not be used in any manner that
 competes with the business of Gaussian, Inc. or will provide
 assistance to any competitor of Gaussian, Inc.  The licensee
 of this program is prohibited from giving any competitor of
 Gaussian, Inc. access to this program.  By using this program,
 the user acknowledges that Gaussian, Inc. is engaged in the
 business of creating and licensing software in the field of
 computational chemistry and represents and warrants to the
 licensee that it is not a competitor of Gaussian, Inc. and that
 it will not use this program in any manner prohibited above.
 ---------------------------------------------------------------
  

 Cite this work as:
 Gaussian 09, Revision D.01,
 M. J. Frisch, G. W. Trucks, H. B. Schlegel, G. E. Scuseria, 
 M. A. Robb, J. R. Cheeseman, G. Scalmani, V. Barone, B. Mennucci, 
 G. A. Petersson, H. Nakatsuji, M. Caricato, X. Li, H. P. Hratchian, 
 A. F. Izmaylov, J. Bloino, G. Zheng, J. L. Sonnenberg, M. Hada, 
 M. Ehara, K. Toyota, R. Fukuda, J. Hasegawa, M. Ishida, T. Nakajima, 
 Y. Honda, O. Kitao, H. Nakai, T. Vreven, J. A. Montgomery, Jr., 
 J. E. Peralta, F. Ogliaro, M. Bearpark, J. J. Heyd, E. Brothers, 
 K. N. Kudin, V. N. Staroverov, T. Keith, R. Kobayashi, J. Normand, 
 K. Raghavachari, A. Rendell, J. C. Burant, S. S. Iyengar, J. Tomasi, 
 M. Cossi, N. Rega, J. M. Millam, M. Klene, J. E. Knox, J. B. Cross, 
 V. Bakken, C. Adamo, J. Jaramillo, R. Gomperts, R. E. Stratmann, 
 O. Yazyev, A. J. Austin, R. Cammi, C. Pomelli, J. W. Ochterski, 
 R. L. Martin, K. Morokuma, V. G. Zakrzewski, G. A. Voth, 
 P. Salvador, J. J. Dannenberg, S. Dapprich, A. D. Daniels, 
 O. Farkas, J. B. Foresman, J. V. Ortiz, J. Cioslowski, 
 and D. J. Fox, Gaussian, Inc., Wallingford CT, 2013.
 
 ******************************************
 Gaussian 09:  ES64L-G09RevD.01 24-Apr-2013
                 3-Sep-2025 
 ******************************************
 %mem=60GB
 %NProcShared=16
 Will use up to   16 processors via shared memory.
 %chk=G-stretched04
 ----------------------------------
 #P bmk/6-31+g opt(modredun,calcfc)
 ----------------------------------
 1/10=4,14=-1,18=120,19=15,26=3,38=1/1,3;
 2/9=110,12=2,17=6,18=5,40=1/2;
 3/5=1,6=6,7=10,11=2,16=1,25=1,30=1,71=2,74=-34,140=1/1,2,3;
 4//1;
 5/5=2,38=5/2;
 8/6=4,10=90,11=11/1;
 11/6=1,8=1,9=11,15=111,16=1/1,2,10;
 10/6=1,13=1/2;
 6/7=2,8=2,9=2,10=2,28=1/1;
 7/10=1,18=20,25=1/1,2,3,16;
 1/10=4,14=-1,18=20,19=15,26=3/3(2);
 2/9=110/2;
 99//99;
 2/9=110/2;
 3/5=1,6=6,7=10,11=2,16=1,25=1,30=1,71=1,74=-34/1,2,3;
 4/5=5,16=3,69=1/1;
 5/5=2,38=5/2;
 7//1,2,3,16;
 1/14=-1,18=20,19=15,26=3/3(-5);
 2/9=110/2;
 6/7=2,8=2,9=2,10=2,19=2,28=1/1;
 99/9=1/99;
 Leave Link    1 at Wed Sep  3 14:20:10 2025, MaxMem=  8053063680 cpu:         1.2
 (Enter /nexus/posix0/bmm/home/sucerqdl/sw/g09/l101.exe)
 ------------------------------
 Gaussian input prepared by ASE
 ------------------------------
 Symbolic Z-matrix:
 Charge =  0 Multiplicity = 1
 C                     0.        0.        0. 
 H                     0.02481   1.09557  -0.0001 
 H                    -0.52784  -0.36878  -0.89279 
 H                    -0.52782  -0.36861   0.89287 
 C                     1.48215  -0.66436   0.00004 
 O                     1.52944  -1.91092   0.00014 
 N                     2.71158   0.04797  -0.00002 
 H                     2.7531    1.05942  -0.00009 
 C                     4.04468  -0.68955   0.00002 
 H                     4.06808  -1.34745  -0.88137 
 H                     4.06807  -1.34738   0.88145 
 C                     5.38679   0.19511  -0.00002 
 O                     5.32071   1.43368  -0.0001 
 N                     6.61391  -0.51451   0.00004 
 H                     6.53074  -1.52334   0.0001 
 C                     8.0857    0.        0. 
 H                     8.60745  -0.355    -0.90183 
 H                     8.04009   1.09315  -0.00002 
 H                     8.60748  -0.35496   0.90183 
 
 The following ModRedundant input section has been read:
 B       1      16 F                                                           
 
 NAtoms=     19 NQM=       19 NQMF=       0 NMMI=      0 NMMIF=      0
                NMic=       0 NMicF=      0.
                    Isotopes and Nuclear Properties:
 (Nuclear quadrupole moments (NQMom) in fm**2, nuclear magnetic moments (NMagM)
  in nuclear magnetons)

  Atom         1           2           3           4           5           6           7           8           9          10
 IAtWgt=          12           1           1           1          12          16          14           1          12           1
 AtmWgt=  12.0000000   1.0078250   1.0078250   1.0078250  12.0000000  15.9949146  14.0030740   1.0078250  12.0000000   1.0078250
 NucSpn=           0           1           1           1           0           0           2           1           0           1
 AtZEff=   0.0000000   0.0000000   0.0000000   0.0000000   0.0000000   0.0000000   0.0000000   0.0000000   0.0000000   0.0000000
 NQMom=    0.0000000   0.0000000   0.0000000   0.0000000   0.0000000   0.0000000   2.0440000   0.0000000   0.0000000   0.0000000
 NMagM=    0.0000000   2.7928460   2.7928460   2.7928460   0.0000000   0.0000000   0.4037610   2.7928460   0.0000000   2.7928460
 AtZNuc=   6.0000000   1.0000000   1.0000000   1.0000000   6.0000000   8.0000000   7.0000000   1.0000000   6.0000000   1.0000000

  Atom        11          12          13          14          15          16          17          18          19
 IAtWgt=           1          12          16          14           1          12           1           1           1
 AtmWgt=   1.0078250  12.0000000  15.9949146  14.0030740   1.0078250  12.0000000   1.0078250   1.0078250   1.0078250
 NucSpn=           1           0           0           2           1           0           1           1           1
 AtZEff=   0.0000000   0.0000000   0.0000000   0.0000000   0.0000000   0.0000000   0.0000000   0.0000000   0.0000000
 NQMom=    0.0000000   0.0000000   0.0000000   2.0440000   0.0000000   0.0000000   0.0000000   0.0000000   0.0000000
 NMagM=    2.7928460   0.0000000   0.0000000   0.4037610   2.7928460   0.0000000   2.7928460   2.7928460   2.7928460
 AtZNuc=   1.0000000   6.0000000   8.0000000   7.0000000   1.0000000   6.0000000   1.0000000   1.0000000   1.0000000
 Leave Link  101 at Wed Sep  3 14:20:11 2025, MaxMem=  8053063680 cpu:         5.7
 (Enter /nexus/posix0/bmm/home/sucerqdl/sw/g09/l103.exe)

 GradGradGradGradGradGradGradGradGradGradGradGradGradGradGradGradGradGrad
 Berny optimization.
 Initialization pass.
                           ----------------------------
                           !    Initial Parameters    !
                           ! (Angstroms and Degrees)  !
 --------------------------                            --------------------------
 ! Name  Definition              Value          Derivative Info.                !
 --------------------------------------------------------------------------------
 ! R1    R(1,2)                  1.0958         calculate D2E/DX2 analytically  !
 ! R2    R(1,3)                  1.1008         calculate D2E/DX2 analytically  !
 ! R3    R(1,4)                  1.1008         calculate D2E/DX2 analytically  !
 ! R4    R(1,5)                  1.6242         calculate D2E/DX2 analytically  !
 ! R5    R(1,16)                 8.0857         frozen, calculate D2E/DX2 analyt!
 ! R6    R(5,6)                  1.2475         calculate D2E/DX2 analytically  !
 ! R7    R(5,7)                  1.4209         calculate D2E/DX2 analytically  !
 ! R8    R(7,8)                  1.0123         calculate D2E/DX2 analytically  !
 ! R9    R(7,9)                  1.5235         calculate D2E/DX2 analytically  !
 ! R10   R(9,10)                 1.1001         calculate D2E/DX2 analytically  !
 ! R11   R(9,11)                 1.1001         calculate D2E/DX2 analytically  !
 ! R12   R(9,12)                 1.6074         calculate D2E/DX2 analytically  !
 ! R13   R(12,13)                1.2403         calculate D2E/DX2 analytically  !
 ! R14   R(12,14)                1.4175         calculate D2E/DX2 analytically  !
 ! R15   R(14,15)                1.0123         calculate D2E/DX2 analytically  !
 ! R16   R(14,16)                1.5591         calculate D2E/DX2 analytically  !
 ! R17   R(16,17)                1.1007         calculate D2E/DX2 analytically  !
 ! R18   R(16,18)                1.0941         calculate D2E/DX2 analytically  !
 ! R19   R(16,19)                1.1007         calculate D2E/DX2 analytically  !
 ! A1    A(2,1,3)              110.2256         calculate D2E/DX2 analytically  !
 ! A2    A(2,1,4)              110.2255         calculate D2E/DX2 analytically  !
 ! A3    A(2,1,5)              112.8464         calculate D2E/DX2 analytically  !
 ! A4    A(3,1,4)              108.4069         calculate D2E/DX2 analytically  !
 ! A5    A(3,1,5)              107.4913         calculate D2E/DX2 analytically  !
 ! A6    A(4,1,5)              107.4914         calculate D2E/DX2 analytically  !
 ! A7    A(1,5,6)              116.3161         calculate D2E/DX2 analytically  !
 ! A8    A(1,5,7)              125.7681         calculate D2E/DX2 analytically  !
 ! A9    A(6,5,7)              117.9158         calculate D2E/DX2 analytically  !
 ! A10   A(5,7,8)              122.439          calculate D2E/DX2 analytically  !
 ! A11   A(5,7,9)              120.9589         calculate D2E/DX2 analytically  !
 ! A12   A(8,7,9)              116.6021         calculate D2E/DX2 analytically  !
 ! A13   A(7,9,10)             107.9445         calculate D2E/DX2 analytically  !
 ! A14   A(7,9,11)             107.9442         calculate D2E/DX2 analytically  !
 ! A15   A(7,9,12)             117.6558         calculate D2E/DX2 analytically  !
 ! A16   A(10,9,11)            106.4919         calculate D2E/DX2 analytically  !
 ! A17   A(10,9,12)            108.1408         calculate D2E/DX2 analytically  !
 ! A18   A(11,9,12)            108.1416         calculate D2E/DX2 analytically  !
 ! A19   A(9,12,13)            120.337          calculate D2E/DX2 analytically  !
 ! A20   A(9,12,14)            116.5688         calculate D2E/DX2 analytically  !
 ! A21   A(13,12,14)           123.0943         calculate D2E/DX2 analytically  !
 ! A22   A(12,14,15)           115.3273         calculate D2E/DX2 analytically  !
 ! A23   A(12,14,16)           130.691          calculate D2E/DX2 analytically  !
 ! A24   A(15,14,16)           113.9817         calculate D2E/DX2 analytically  !
 ! A25   A(14,16,17)           109.9409         calculate D2E/DX2 analytically  !
 ! A26   A(14,16,18)           106.8801         calculate D2E/DX2 analytically  !
 ! A27   A(14,16,19)           109.9407         calculate D2E/DX2 analytically  !
 ! A28   A(17,16,18)           109.9975         calculate D2E/DX2 analytically  !
 ! A29   A(17,16,19)           110.0338         calculate D2E/DX2 analytically  !
 ! A30   A(18,16,19)           109.9976         calculate D2E/DX2 analytically  !
 ! D1    D(2,1,5,6)           -179.9988         calculate D2E/DX2 analytically  !
 ! D2    D(2,1,5,7)              0.0011         calculate D2E/DX2 analytically  !
 ! D3    D(3,1,5,6)            -58.2562         calculate D2E/DX2 analytically  !
 ! D4    D(3,1,5,7)            121.7437         calculate D2E/DX2 analytically  !
 ! D5    D(4,1,5,6)             58.2587         calculate D2E/DX2 analytically  !
 ! D6    D(4,1,5,7)           -121.7414         calculate D2E/DX2 analytically  !
 ! D7    D(1,5,7,8)              0.0            calculate D2E/DX2 analytically  !
 ! D8    D(1,5,7,9)           -179.9992         calculate D2E/DX2 analytically  !
 ! D9    D(6,5,7,8)            179.9999         calculate D2E/DX2 analytically  !
 ! D10   D(6,5,7,9)              0.0007         calculate D2E/DX2 analytically  !
 ! D11   D(5,7,9,10)            57.3728         calculate D2E/DX2 analytically  !
 ! D12   D(5,7,9,11)           -57.3689         calculate D2E/DX2 analytically  !
 ! D13   D(5,7,9,12)          -179.9985         calculate D2E/DX2 analytically  !
 ! D14   D(8,7,9,10)          -122.6265         calculate D2E/DX2 analytically  !
 ! D15   D(8,7,9,11)           122.6318         calculate D2E/DX2 analytically  !
 ! D16   D(8,7,9,12)             0.0023         calculate D2E/DX2 analytically  !
 ! D17   D(7,9,12,13)           -0.0015         calculate D2E/DX2 analytically  !
 ! D18   D(7,9,12,14)          179.9989         calculate D2E/DX2 analytically  !
 ! D19   D(10,9,12,13)         122.5271         calculate D2E/DX2 analytically  !
 ! D20   D(10,9,12,14)         -57.4724         calculate D2E/DX2 analytically  !
 ! D21   D(11,9,12,13)        -122.5305         calculate D2E/DX2 analytically  !
 ! D22   D(11,9,12,14)          57.47           calculate D2E/DX2 analytically  !
 ! D23   D(9,12,14,15)          -0.0007         calculate D2E/DX2 analytically  !
 ! D24   D(9,12,14,16)         179.9989         calculate D2E/DX2 analytically  !
 ! D25   D(13,12,14,15)        179.9998         calculate D2E/DX2 analytically  !
 ! D26   D(13,12,14,16)         -0.0006         calculate D2E/DX2 analytically  !
 ! D27   D(12,14,16,17)       -119.3545         calculate D2E/DX2 analytically  !
 ! D28   D(12,14,16,18)          0.0032         calculate D2E/DX2 analytically  !
 ! D29   D(12,14,16,19)        119.3609         calculate D2E/DX2 analytically  !
 ! D30   D(15,14,16,17)         60.6451         calculate D2E/DX2 analytically  !
 ! D31   D(15,14,16,18)       -179.9972         calculate D2E/DX2 analytically  !
 ! D32   D(15,14,16,19)        -60.6395         calculate D2E/DX2 analytically  !
 --------------------------------------------------------------------------------
 Trust Radius=3.00D-01 FncErr=1.00D-07 GrdErr=1.00D-06
 Number of steps in this run=     91 maximum allowed number of steps=    114.
 GradGradGradGradGradGradGradGradGradGradGradGradGradGradGradGradGradGrad

 Leave Link  103 at Wed Sep  3 14:20:11 2025, MaxMem=  8053063680 cpu:         0.2
 (Enter /nexus/posix0/bmm/home/sucerqdl/sw/g09/l202.exe)
                          Input orientation:                          
 ---------------------------------------------------------------------
 Center     Atomic      Atomic             Coordinates (Angstroms)
 Number     Number       Type             X           Y           Z
 ---------------------------------------------------------------------
      1          6           0        0.000000    0.000000    0.000000
      2          1           0        0.024813    1.095566   -0.000104
      3          1           0       -0.527838   -0.368781   -0.892787
      4          1           0       -0.527817   -0.368609    0.892868
      5          6           0        1.482152   -0.664359    0.000044
      6          8           0        1.529436   -1.910924    0.000138
      7          7           0        2.711578    0.047973   -0.000017
      8          1           0        2.753103    1.059424   -0.000095
      9          6           0        4.044683   -0.689551    0.000016
     10          1           0        4.068079   -1.347445   -0.881369
     11          1           0        4.068065   -1.347380    0.881450
     12          6           0        5.386794    0.195109   -0.000019
     13          8           0        5.320710    1.433681   -0.000100
     14          7           0        6.613912   -0.514514    0.000036
     15          1           0        6.530744   -1.523344    0.000104
     16          6           0        8.085697    0.000000    0.000000
     17          1           0        8.607452   -0.354999   -0.901830
     18          1           0        8.040094    1.093151   -0.000023
     19          1           0        8.607477   -0.354961    0.901830
 ---------------------------------------------------------------------
                    Distance matrix (angstroms):
                    1          2          3          4          5
     1  C    0.000000
     2  H    1.095847   0.000000
     3  H    1.100763   1.801836   0.000000
     4  H    1.100762   1.801834   1.785655   0.000000
     5  C    1.624237   2.284988   2.219138   2.219139   0.000000
     6  O    2.447612   3.361974   2.721745   2.721763   1.247462
     7  N    2.712003   2.883775   3.385932   3.385922   1.420882
     8  H    2.949908   2.728530   3.687986   3.687966   2.141669
     9  C    4.103040   4.398409   4.669896   4.669897   2.562655
    10  H    4.375121   4.805511   4.698975   5.022778   2.816117
    11  H    4.375105   4.805519   5.022738   4.698963   2.816086
    12  C    5.390326   5.437064   6.008151   6.008132   3.998114
    13  O    5.510480   5.306679   6.184760   6.184731   4.374505
    14  N    6.633895   6.782963   7.198817   7.198801   5.133947
    15  H    6.706057   7.013262   7.207902   7.207893   5.121146
    16  C    8.085697   8.134993   8.667528   8.667508   6.636880
    17  H    8.661844   8.750939   9.135304   9.309901   7.188809
    18  H    8.114067   8.015282   8.737489   8.737453   6.789363
    19  H    8.661867   8.750979   9.309930   9.135308   7.188824
                    6          7          8          9         10
     6  O    0.000000
     7  N    2.287955   0.000000
     8  H    3.212527   1.012303   0.000000
     9  C    2.796108   1.523519   2.174188   0.000000
    10  H    2.745773   2.136368   2.880768   1.100096   0.000000
    11  H    2.745712   2.136364   2.880790   1.100096   1.762819
    12  C    4.394837   2.679259   2.771889   1.607447   2.212524
    13  O    5.055704   2.954277   2.594739   2.477168   3.174962
    14  N    5.272747   3.942664   4.169308   2.575185   2.819914
    15  H    5.016304   4.129778   4.576163   2.622158   2.621575
    16  C    6.829069   5.374332   5.436813   4.099424   4.328241
    17  H    7.302928   5.978041   6.089919   4.663058   4.646641
    18  H    7.170295   5.430053   5.287099   4.375081   4.744490
    19  H    7.302926   5.978068   6.089963   4.663079   4.977043
                   11         12         13         14         15
    11  H    0.000000
    12  C    2.212534   0.000000
    13  O    3.174988   1.240334   0.000000
    14  N    2.819910   1.417527   2.338341   0.000000
    15  H    2.621549   2.064389   3.195025   1.012252   0.000000
    16  C    4.328250   2.705946   3.114578   1.559126   2.176799
    17  H    4.977041   3.389471   3.849048   2.193856   2.547789
    18  H    4.744491   2.801157   2.740623   2.149088   3.020626
    19  H    4.646672   3.389499   3.849098   2.193852   2.547753
                   16         17         18         19
    16  C    0.000000
    17  H    1.100705   0.000000
    18  H    1.094101   1.797857   0.000000
    19  H    1.100704   1.803660   1.797857   0.000000
 Stoichiometry    C5H10N2O2
 Framework group  C1[X(C5H10N2O2)]
 Deg. of freedom    51
 Full point group                 C1      NOp   1
 Largest Abelian subgroup         C1      NOp   1
 Largest concise Abelian subgroup C1      NOp   1
                         Standard orientation:                         
 ---------------------------------------------------------------------
 Center     Atomic      Atomic             Coordinates (Angstroms)
 Number     Number       Type             X           Y           Z
 ---------------------------------------------------------------------
      1          6           0       -3.889216    0.666194   -0.000010
      2          1           0       -3.744240    1.752409   -0.000114
      3          1           0       -4.454360    0.357611   -0.892797
      4          1           0       -4.454321    0.357779    0.892858
      5          6           0       -2.488988   -0.156914    0.000034
      6          8           0       -2.578886   -1.401133    0.000128
      7          7           0       -1.188770    0.416095   -0.000027
      8          1           0       -1.036420    1.416868   -0.000105
      9          6           0        0.055277   -0.463368    0.000006
     10          1           0        0.006283   -1.119853   -0.881379
     11          1           0        0.006277   -1.119786    0.881440
     12          6           0        1.486423    0.268552   -0.000030
     13          8           0        1.556757    1.506890   -0.000111
     14          7           0        2.628190   -0.571540    0.000025
     15          1           0        2.434736   -1.565134    0.000093
     16          6           0        4.147575   -0.221767   -0.000010
     17          1           0        4.627189   -0.631917   -0.901841
     18          1           0        4.222297    0.869780   -0.000033
     19          1           0        4.627218   -0.631883    0.901819
 ---------------------------------------------------------------------
 Rotational constants (GHZ):      5.0161925      0.5756438      0.5215133
 Leave Link  202 at Wed Sep  3 14:20:11 2025, MaxMem=  8053063680 cpu:         0.1
 (Enter /nexus/posix0/bmm/home/sucerqdl/sw/g09/l301.exe)
 Standard basis: 6-31+G (6D, 7F)
 Ernie: Thresh=  0.10000D-02 Tol=  0.10000D-05 Strict=F.
 There are   137 symmetry adapted cartesian basis functions of A   symmetry.
 There are   137 symmetry adapted basis functions of A   symmetry.
   137 basis functions,   274 primitive gaussians,   137 cartesian basis functions
    35 alpha electrons       35 beta electrons
       nuclear repulsion energy       426.5638722941 Hartrees.
 IExCor= 3226 DFT=T Ex+Corr=BMK ExCW=0 ScaHFX=  0.420000
 ScaDFX=  1.000000  1.000000  1.000000  1.000000 ScalE2=  1.000000  1.000000
 IRadAn=      0 IRanWt=     -1 IRanGd=            0 ICorTp=0 IEmpDi=  4
 NAtoms=   19 NActive=   19 NUniq=   19 SFac= 1.00D+00 NAtFMM=   60 NAOKFM=F Big=F
 Integral buffers will be    131072 words long.
 Raffenetti 2 integral format.
 Two-electron integral symmetry is turned on.
 Leave Link  301 at Wed Sep  3 14:20:11 2025, MaxMem=  8053063680 cpu:         0.7
 (Enter /nexus/posix0/bmm/home/sucerqdl/sw/g09/l302.exe)
 NPDir=0 NMtPBC=     1 NCelOv=     1 NCel=       1 NClECP=     1 NCelD=      1
         NCelK=      1 NCelE2=     1 NClLst=     1 CellRange=     0.0.
 One-electron integrals computed using PRISM.
 NBasis=   137 RedAO= T EigKep=  2.73D-05  NBF=   137
 NBsUse=   137 1.00D-06 EigRej= -1.00D+00 NBFU=   137
 Precomputing XC quadrature grid using
 IXCGrd= 4 IRadAn=           0 IRanWt=          -1 IRanGd=           0 AccXCQ= 0.00D+00.
 Generated NRdTot=       0 NPtTot=           0 NUsed=           0 NTot=          32
 NSgBfM=   136   136   136   136   136 MxSgAt=    19 MxSgA2=    19.
 Leave Link  302 at Wed Sep  3 14:20:11 2025, MaxMem=  8053063680 cpu:         2.0
 (Enter /nexus/posix0/bmm/home/sucerqdl/sw/g09/l303.exe)
 DipDrv:  MaxL=1.
 Leave Link  303 at Wed Sep  3 14:20:12 2025, MaxMem=  8053063680 cpu:         0.4
 (Enter /nexus/posix0/bmm/home/sucerqdl/sw/g09/l401.exe)
 ExpMin= 4.38D-02 ExpMax= 5.48D+03 ExpMxC= 8.25D+02 IAcc=2 IRadAn=         4 AccDes= 0.00D+00
 Harris functional with IExCor= 1009 and IRadAn=       4 diagonalized for initial guess.
 HarFok:  IExCor= 1009 AccDes= 0.00D+00 IRadAn=         4 IDoV= 1 UseB2=F ITyADJ=14
 ICtDFT=  3500011 ScaDFX=  1.000000  1.000000  1.000000  1.000000
 FoFCou: FMM=F IPFlag=           0 FMFlag=      100000 FMFlg1=           0
         NFxFlg=           0 DoJE=T BraDBF=F KetDBF=T FulRan=T
         wScrn=  0.000000 ICntrl=     500 IOpCl=  0 I1Cent=   200000004 NGrid=           0
         NMat0=    1 NMatS0=      1 NMatT0=    0 NMatD0=    1 NMtDS0=    0 NMtDT0=    0
 Petite list used in FoFCou.
 Harris En= -455.973957008287    
 JPrj=0 DoOrth=F DoCkMO=F.
 Leave Link  401 at Wed Sep  3 14:20:12 2025, MaxMem=  8053063680 cpu:         3.3
 (Enter /nexus/posix0/bmm/home/sucerqdl/sw/g09/l502.exe)
 Closed shell SCF:
 Using DIIS extrapolation, IDIIS=  1040.
 Integral symmetry usage will be decided dynamically.
 Keep R1 ints in memory in canonical form, NReq=46076400.
 IVT=       78102 IEndB=       78102 NGot=  8053063680 MDV=  8008301248
 LenX=  8008301248 LenY=  8008282038
 Requested convergence on RMS density matrix=1.00D-08 within 128 cycles.
 Requested convergence on MAX density matrix=1.00D-06.
 Requested convergence on             energy=1.00D-06.
 No special actions if energy rises.
 FoFCou: FMM=F IPFlag=           0 FMFlag=           0 FMFlg1=           0
         NFxFlg=           0 DoJE=F BraDBF=F KetDBF=F FulRan=T
         wScrn=  0.000000 ICntrl=     600 IOpCl=  0 I1Cent=           0 NGrid=           0
         NMat0=    1 NMatS0=   9453 NMatT0=    0 NMatD0=    1 NMtDS0=    0 NMtDT0=    0
 Symmetry not used in FoFCou.

 Cycle   1  Pass 1  IDiag  1:
 E= -455.887105256850    
 DIIS: error= 3.75D-02 at cycle   1 NSaved=   1.
 NSaved= 1 IEnMin= 1 EnMin= -455.887105256850     IErMin= 1 ErrMin= 3.75D-02
 ErrMax= 3.75D-02  0.00D+00 EMaxC= 1.00D-01 BMatC= 2.66D-01 BMatP= 2.66D-01
 IDIUse=3 WtCom= 6.25D-01 WtEn= 3.75D-01
 Coeff-Com:  0.100D+01
 Coeff-En:   0.100D+01
 Coeff:      0.100D+01
 Gap=     0.326 Goal=   None    Shift=    0.000
 GapD=    0.326 DampG=1.000 DampE=0.500 DampFc=0.5000 IDamp=-1.
 Damping current iteration by 5.00D-01
 RMSDP=3.06D-02 MaxDP=1.67D+00              OVMax= 2.86D-01

 Cycle   2  Pass 1  IDiag  1:
 E= -455.947794567488     Delta-E=       -0.060689310638 Rises=F Damp=T
 DIIS: error= 1.95D-02 at cycle   2 NSaved=   2.
 NSaved= 2 IEnMin= 2 EnMin= -455.947794567488     IErMin= 2 ErrMin= 1.95D-02
 ErrMax= 1.95D-02  0.00D+00 EMaxC= 1.00D-01 BMatC= 4.35D-02 BMatP= 2.66D-01
 IDIUse=3 WtCom= 8.05D-01 WtEn= 1.95D-01
 Coeff-Com:  0.238D+00 0.762D+00
 Coeff-En:   0.357D+00 0.643D+00
 Coeff:      0.262D+00 0.738D+00
 Gap=     0.326 Goal=   None    Shift=    0.000
 RMSDP=1.40D-02 MaxDP=8.84D-01 DE=-6.07D-02 OVMax= 1.43D-01

 Cycle   3  Pass 1  IDiag  1:
 E= -456.106814685081     Delta-E=       -0.159020117592 Rises=F Damp=F
 DIIS: error= 1.37D-02 at cycle   3 NSaved=   3.
 NSaved= 3 IEnMin= 3 EnMin= -456.106814685081     IErMin= 3 ErrMin= 1.37D-02
 ErrMax= 1.37D-02  0.00D+00 EMaxC= 1.00D-01 BMatC= 1.75D-02 BMatP= 4.35D-02
 IDIUse=3 WtCom= 8.63D-01 WtEn= 1.37D-01
 Coeff-Com:  0.882D-01 0.389D+00 0.522D+00
 Coeff-En:   0.000D+00 0.000D+00 0.100D+01
 Coeff:      0.762D-01 0.336D+00 0.588D+00
 Gap=     0.332 Goal=   None    Shift=    0.000
 RMSDP=1.84D-03 MaxDP=5.39D-02 DE=-1.59D-01 OVMax= 4.29D-02

 Cycle   4  Pass 1  IDiag  1:
 E= -456.121281142175     Delta-E=       -0.014466457094 Rises=F Damp=F
 DIIS: error= 4.92D-03 at cycle   4 NSaved=   4.
 NSaved= 4 IEnMin= 4 EnMin= -456.121281142175     IErMin= 4 ErrMin= 4.92D-03
 ErrMax= 4.92D-03  0.00D+00 EMaxC= 1.00D-01 BMatC= 2.42D-03 BMatP= 1.75D-02
 IDIUse=3 WtCom= 9.51D-01 WtEn= 4.92D-02
 Coeff-Com:  0.183D-01 0.323D-01 0.271D+00 0.678D+00
 Coeff-En:   0.000D+00 0.000D+00 0.659D-01 0.934D+00
 Coeff:      0.174D-01 0.307D-01 0.261D+00 0.691D+00
 Gap=     0.329 Goal=   None    Shift=    0.000
 RMSDP=7.27D-04 MaxDP=3.06D-02 DE=-1.45D-02 OVMax= 1.22D-02

 Cycle   5  Pass 1  IDiag  1:
 E= -456.123150883398     Delta-E=       -0.001869741223 Rises=F Damp=F
 DIIS: error= 1.28D-03 at cycle   5 NSaved=   5.
 NSaved= 5 IEnMin= 5 EnMin= -456.123150883398     IErMin= 5 ErrMin= 1.28D-03
 ErrMax= 1.28D-03  0.00D+00 EMaxC= 1.00D-01 BMatC= 1.67D-04 BMatP= 2.42D-03
 IDIUse=3 WtCom= 9.87D-01 WtEn= 1.28D-02
 Coeff-Com:  0.395D-02-0.164D-01 0.935D-01 0.356D+00 0.563D+00
 Coeff-En:   0.000D+00 0.000D+00 0.000D+00 0.000D+00 0.100D+01
 Coeff:      0.390D-02-0.162D-01 0.923D-01 0.351D+00 0.569D+00
 Gap=     0.326 Goal=   None    Shift=    0.000
 RMSDP=2.70D-04 MaxDP=1.70D-02 DE=-1.87D-03 OVMax= 3.66D-03

 Cycle   6  Pass 1  IDiag  1:
 E= -456.123305072575     Delta-E=       -0.000154189178 Rises=F Damp=F
 DIIS: error= 2.77D-04 at cycle   6 NSaved=   6.
 NSaved= 6 IEnMin= 6 EnMin= -456.123305072575     IErMin= 6 ErrMin= 2.77D-04
 ErrMax= 2.77D-04  0.00D+00 EMaxC= 1.00D-01 BMatC= 7.81D-06 BMatP= 1.67D-04
 IDIUse=3 WtCom= 9.97D-01 WtEn= 2.77D-03
 Coeff-Com:  0.180D-02-0.893D-02 0.219D-01 0.834D-01 0.208D+00 0.694D+00
 Coeff-En:   0.000D+00 0.000D+00 0.000D+00 0.000D+00 0.000D+00 0.100D+01
 Coeff:      0.180D-02-0.890D-02 0.218D-01 0.832D-01 0.207D+00 0.695D+00
 Gap=     0.326 Goal=   None    Shift=    0.000
 RMSDP=9.45D-05 MaxDP=5.36D-03 DE=-1.54D-04 OVMax= 4.65D-04

 Cycle   7  Pass 1  IDiag  1:
 E= -456.123311570865     Delta-E=       -0.000006498289 Rises=F Damp=F
 DIIS: error= 7.28D-05 at cycle   7 NSaved=   7.
 NSaved= 7 IEnMin= 7 EnMin= -456.123311570865     IErMin= 7 ErrMin= 7.28D-05
 ErrMax= 7.28D-05  0.00D+00 EMaxC= 1.00D-01 BMatC= 9.40D-07 BMatP= 7.81D-06
 IDIUse=1 WtCom= 1.00D+00 WtEn= 0.00D+00
 Coeff-Com:  0.563D-03-0.149D-02-0.557D-02-0.274D-01-0.540D-02 0.241D+00
 Coeff-Com:  0.798D+00
 Coeff:      0.563D-03-0.149D-02-0.557D-02-0.274D-01-0.540D-02 0.241D+00
 Coeff:      0.798D+00
 Gap=     0.326 Goal=   None    Shift=    0.000
 RMSDP=2.93D-05 MaxDP=9.13D-04 DE=-6.50D-06 OVMax= 3.55D-04

 Cycle   8  Pass 1  IDiag  1:
 E= -456.123312412296     Delta-E=       -0.000000841432 Rises=F Damp=F
 DIIS: error= 3.74D-05 at cycle   8 NSaved=   8.
 NSaved= 8 IEnMin= 8 EnMin= -456.123312412296     IErMin= 8 ErrMin= 3.74D-05
 ErrMax= 3.74D-05  0.00D+00 EMaxC= 1.00D-01 BMatC= 1.59D-07 BMatP= 9.40D-07
 IDIUse=1 WtCom= 1.00D+00 WtEn= 0.00D+00
 Coeff-Com:  0.214D-03-0.229D-03-0.461D-02-0.218D-01-0.183D-01 0.746D-01
 Coeff-Com:  0.459D+00 0.511D+00
 Coeff:      0.214D-03-0.229D-03-0.461D-02-0.218D-01-0.183D-01 0.746D-01
 Coeff:      0.459D+00 0.511D+00
 Gap=     0.326 Goal=   None    Shift=    0.000
 RMSDP=1.20D-05 MaxDP=5.77D-04 DE=-8.41D-07 OVMax= 1.46D-04

 Cycle   9  Pass 1  IDiag  1:
 E= -456.123312529483     Delta-E=       -0.000000117187 Rises=F Damp=F
 DIIS: error= 1.41D-05 at cycle   9 NSaved=   9.
 NSaved= 9 IEnMin= 9 EnMin= -456.123312529483     IErMin= 9 ErrMin= 1.41D-05
 ErrMax= 1.41D-05  0.00D+00 EMaxC= 1.00D-01 BMatC= 2.09D-08 BMatP= 1.59D-07
 IDIUse=1 WtCom= 1.00D+00 WtEn= 0.00D+00
 Coeff-Com: -0.392D-04 0.252D-03-0.485D-03-0.270D-02-0.669D-02-0.375D-01
 Coeff-Com:  0.139D-01 0.281D+00 0.752D+00
 Coeff:     -0.392D-04 0.252D-03-0.485D-03-0.270D-02-0.669D-02-0.375D-01
 Coeff:      0.139D-01 0.281D+00 0.752D+00
 Gap=     0.326 Goal=   None    Shift=    0.000
 RMSDP=2.81D-06 MaxDP=5.23D-05 DE=-1.17D-07 OVMax= 6.36D-05

 Cycle  10  Pass 1  IDiag  1:
 E= -456.123312549999     Delta-E=       -0.000000020516 Rises=F Damp=F
 DIIS: error= 1.57D-06 at cycle  10 NSaved=  10.
 NSaved=10 IEnMin=10 EnMin= -456.123312549999     IErMin=10 ErrMin= 1.57D-06
 ErrMax= 1.57D-06  0.00D+00 EMaxC= 1.00D-01 BMatC= 2.05D-10 BMatP= 2.09D-08
 IDIUse=1 WtCom= 1.00D+00 WtEn= 0.00D+00
 Coeff-Com: -0.147D-04 0.552D-04 0.651D-04 0.153D-03-0.579D-03-0.875D-02
 Coeff-Com: -0.953D-02 0.221D-01 0.136D+00 0.861D+00
 Coeff:     -0.147D-04 0.552D-04 0.651D-04 0.153D-03-0.579D-03-0.875D-02
 Coeff:     -0.953D-02 0.221D-01 0.136D+00 0.861D+00
 Gap=     0.326 Goal=   None    Shift=    0.000
 RMSDP=6.06D-07 MaxDP=1.30D-05 DE=-2.05D-08 OVMax= 5.54D-06

 Cycle  11  Pass 1  IDiag  1:
 E= -456.123312550223     Delta-E=       -0.000000000224 Rises=F Damp=F
 DIIS: error= 6.27D-07 at cycle  11 NSaved=  11.
 NSaved=11 IEnMin=11 EnMin= -456.123312550223     IErMin=11 ErrMin= 6.27D-07
 ErrMax= 6.27D-07  0.00D+00 EMaxC= 1.00D-01 BMatC= 4.89D-11 BMatP= 2.05D-10
 IDIUse=1 WtCom= 1.00D+00 WtEn= 0.00D+00
 Coeff-Com: -0.387D-05 0.724D-05 0.699D-04 0.265D-03 0.248D-03-0.113D-02
 Coeff-Com: -0.558D-02-0.111D-01 0.338D-02 0.399D+00 0.615D+00
 Coeff:     -0.387D-05 0.724D-05 0.699D-04 0.265D-03 0.248D-03-0.113D-02
 Coeff:     -0.558D-02-0.111D-01 0.338D-02 0.399D+00 0.615D+00
 Gap=     0.326 Goal=   None    Shift=    0.000
 RMSDP=1.56D-07 MaxDP=8.19D-06 DE=-2.24D-10 OVMax= 2.22D-06

 Cycle  12  Pass 1  IDiag  1:
 E= -456.123312550273     Delta-E=       -0.000000000051 Rises=F Damp=F
 DIIS: error= 1.97D-07 at cycle  12 NSaved=  12.
 NSaved=12 IEnMin=12 EnMin= -456.123312550273     IErMin=12 ErrMin= 1.97D-07
 ErrMax= 1.97D-07  0.00D+00 EMaxC= 1.00D-01 BMatC= 4.28D-12 BMatP= 4.89D-11
 IDIUse=1 WtCom= 1.00D+00 WtEn= 0.00D+00
 Coeff-Com: -0.804D-07-0.175D-05 0.224D-04 0.821D-04 0.149D-03 0.386D-03
 Coeff-Com: -0.148D-02-0.577D-02-0.127D-01 0.755D-01 0.253D+00 0.691D+00
 Coeff:     -0.804D-07-0.175D-05 0.224D-04 0.821D-04 0.149D-03 0.386D-03
 Coeff:     -0.148D-02-0.577D-02-0.127D-01 0.755D-01 0.253D+00 0.691D+00
 Gap=     0.326 Goal=   None    Shift=    0.000
 RMSDP=4.82D-08 MaxDP=1.82D-06 DE=-5.06D-11 OVMax= 5.89D-07

 Cycle  13  Pass 1  IDiag  1:
 E= -456.123312550268     Delta-E=        0.000000000005 Rises=F Damp=F
 DIIS: error= 5.85D-08 at cycle  13 NSaved=  13.
 NSaved=13 IEnMin=12 EnMin= -456.123312550273     IErMin=13 ErrMin= 5.85D-08
 ErrMax= 5.85D-08  0.00D+00 EMaxC= 1.00D-01 BMatC= 4.18D-13 BMatP= 4.28D-12
 IDIUse=1 WtCom= 1.00D+00 WtEn= 0.00D+00
 Coeff-Com:  0.350D-06-0.156D-05 0.526D-05 0.160D-04 0.528D-04 0.288D-03
 Coeff-Com: -0.233D-03-0.176D-02-0.638D-02-0.562D-03 0.656D-01 0.318D+00
 Coeff-Com:  0.625D+00
 Coeff:      0.350D-06-0.156D-05 0.526D-05 0.160D-04 0.528D-04 0.288D-03
 Coeff:     -0.233D-03-0.176D-02-0.638D-02-0.562D-03 0.656D-01 0.318D+00
 Coeff:      0.625D+00
 Gap=     0.326 Goal=   None    Shift=    0.000
 RMSDP=1.23D-08 MaxDP=3.96D-07 DE= 4.89D-12 OVMax= 1.07D-07

 Cycle  14  Pass 1  IDiag  1:
 E= -456.123312550281     Delta-E=       -0.000000000013 Rises=F Damp=F
 DIIS: error= 9.09D-09 at cycle  14 NSaved=  14.
 NSaved=14 IEnMin=14 EnMin= -456.123312550281     IErMin=14 ErrMin= 9.09D-09
 ErrMax= 9.09D-09  0.00D+00 EMaxC= 1.00D-01 BMatC= 1.13D-14 BMatP= 4.18D-13
 IDIUse=1 WtCom= 1.00D+00 WtEn= 0.00D+00
 Coeff-Com:  0.628D-07-0.896D-07-0.657D-06-0.382D-05-0.217D-05 0.126D-04
 Coeff-Com:  0.673D-04 0.758D-04 0.920D-04-0.534D-02-0.845D-02-0.146D-02
 Coeff-Com:  0.101D+00 0.914D+00
 Coeff:      0.628D-07-0.896D-07-0.657D-06-0.382D-05-0.217D-05 0.126D-04
 Coeff:      0.673D-04 0.758D-04 0.920D-04-0.534D-02-0.845D-02-0.146D-02
 Coeff:      0.101D+00 0.914D+00
 Gap=     0.326 Goal=   None    Shift=    0.000
 RMSDP=3.01D-09 MaxDP=9.15D-08 DE=-1.28D-11 OVMax= 2.94D-08

 SCF Done:  E(RBMK) =  -456.123312550     A.U. after   14 cycles
            NFock= 14  Conv=0.30D-08     -V/T= 2.0077
 KE= 4.526254772595D+02 PE=-1.917639250660D+03 EE= 5.823265885563D+02
 Leave Link  502 at Wed Sep  3 14:20:18 2025, MaxMem=  8053063680 cpu:        82.6
 (Enter /nexus/posix0/bmm/home/sucerqdl/sw/g09/l801.exe)
 DoSCS=F DFT=T ScalE2(SS,OS)=  1.000000  1.000000
 Range of M.O.s used for correlation:     1   137
 NBasis=   137 NAE=    35 NBE=    35 NFC=     0 NFV=     0
 NROrb=    137 NOA=    35 NOB=    35 NVA=   102 NVB=   102

 **** Warning!!: The largest alpha MO coefficient is  0.54907130D+02

 Leave Link  801 at Wed Sep  3 14:20:18 2025, MaxMem=  8053063680 cpu:         0.4
 (Enter /nexus/posix0/bmm/home/sucerqdl/sw/g09/l1101.exe)
 Using compressed storage, NAtomX=    19.
 Will process     20 centers per pass.
 Leave Link 1101 at Wed Sep  3 14:20:18 2025, MaxMem=  8053063680 cpu:         1.6
 (Enter /nexus/posix0/bmm/home/sucerqdl/sw/g09/l1102.exe)
 Symmetrizing basis deriv contribution to polar:
 IMax=3 JMax=2 DiffMx= 0.00D+00
 Leave Link 1102 at Wed Sep  3 14:20:18 2025, MaxMem=  8053063680 cpu:         0.4
 (Enter /nexus/posix0/bmm/home/sucerqdl/sw/g09/l1110.exe)
 Forming Gx(P) for the SCF density, NAtomX=    19.
 Integral derivatives from FoFJK, PRISM(SPDF).
 Do as many integral derivatives as possible in FoFJK.
 G2DrvN: MDV=    8053063424.
 G2DrvN: will do    20 centers at a time, making    1 passes.
 Calling FoFCou, ICntrl=  3107 FMM=F I1Cent=   0 AccDes= 0.00D+00.
 FoFJK:  IHMeth= 1 ICntrl=    3107 DoSepK=F KAlg= 0 I1Cent=   0 FoldK=F
 IRaf=         0 NMat=   1 IRICut=       1 DoRegI=T DoRafI=F ISym2E= 0.
 FoFCou: FMM=F IPFlag=           0 FMFlag=      100000 FMFlg1=           0
         NFxFlg=           0 DoJE=F BraDBF=F KetDBF=F FulRan=T
         wScrn=  0.000000 ICntrl=    3107 IOpCl=  0 I1Cent=           0 NGrid=           0
         NMat0=    1 NMatS0=      1 NMatT0=    0 NMatD0=    1 NMtDS0=    0 NMtDT0=    0
 Symmetry not used in FoFCou.
 End of G2Drv F.D. properties file   721 does not exist.
 End of G2Drv F.D. properties file   722 does not exist.
 End of G2Drv F.D. properties file   788 does not exist.
 Leave Link 1110 at Wed Sep  3 14:20:27 2025, MaxMem=  8053063680 cpu:       139.0
 (Enter /nexus/posix0/bmm/home/sucerqdl/sw/g09/l1002.exe)
 Minotr:  Closed shell wavefunction.
          IDoAtm=1111111111111111111
          Direct CPHF calculation.
          Differentiating once with respect to nuclear coordinates.
          Requested convergence is 1.0D-08 RMS, and 1.0D-07 maximum.
          Secondary convergence is 1.0D-12 RMS, and 1.0D-12 maximum.
          NewPWx=T KeepS1=F KeepF1=F KeepIn=T MapXYZ=F SortEE=F KeepMc=T.
          MDV=    8053063349 using IRadAn=       2.
 Generate precomputed XC quadrature information.
 Keep R1 ints in memory in canonical form, NReq=46004208.
 FoFCou: FMM=F IPFlag=           0 FMFlag=           0 FMFlg1=           0
         NFxFlg=           0 DoJE=F BraDBF=F KetDBF=F FulRan=T
         wScrn=  0.000000 ICntrl=     600 IOpCl=  0 I1Cent=           0 NGrid=           0
         NMat0=    1 NMatS0=   9453 NMatT0=    0 NMatD0=    1 NMtDS0=    0 NMtDT0=    0
 Symmetry not used in FoFCou.
          Solving linear equations simultaneously, MaxMat=       0.
          There are    60 degrees of freedom in the 1st order CPHF.  IDoFFX=6 NUNeed=     0.
     54 vectors produced by pass  0 Test12= 5.95D-15 1.67D-09 XBig12= 1.38D-01 9.64D-02.
 AX will form    54 AO Fock derivatives at one time.
     54 vectors produced by pass  1 Test12= 5.95D-15 1.67D-09 XBig12= 1.03D-02 3.37D-02.
     54 vectors produced by pass  2 Test12= 5.95D-15 1.67D-09 XBig12= 8.17D-05 2.34D-03.
     54 vectors produced by pass  3 Test12= 5.95D-15 1.67D-09 XBig12= 2.38D-07 8.34D-05.
     54 vectors produced by pass  4 Test12= 5.95D-15 1.67D-09 XBig12= 7.52D-10 5.02D-06.
     54 vectors produced by pass  5 Test12= 5.95D-15 1.67D-09 XBig12= 1.88D-12 2.57D-07.
     22 vectors produced by pass  6 Test12= 5.95D-15 1.67D-09 XBig12= 1.29D-14 2.19D-08.
      5 vectors produced by pass  7 Test12= 5.95D-15 1.67D-09 XBig12= 1.85D-16 2.23D-09.
      2 vectors produced by pass  8 Test12= 5.95D-15 1.67D-09 XBig12= 1.63D-16 2.45D-09.
 InvSVY:  IOpt=1 It=  1 EMax= 5.00D-16
 Solved reduced A of dimension   353 with    60 vectors.
 End of Minotr F.D. properties file   721 does not exist.
 End of Minotr F.D. properties file   722 does not exist.
 End of Minotr F.D. properties file   788 does not exist.
 Leave Link 1002 at Wed Sep  3 14:20:36 2025, MaxMem=  8053063680 cpu:       138.8
 (Enter /nexus/posix0/bmm/home/sucerqdl/sw/g09/l601.exe)
 Copying SCF densities to generalized density rwf, IOpCl= 0 IROHF=0.

 **********************************************************************

            Population analysis using the SCF density.

 **********************************************************************

 Orbital symmetries:
       Occupied  (A) (A) (A) (A) (A) (A) (A) (A) (A) (A) (A) (A)
                 (A) (A) (A) (A) (A) (A) (A) (A) (A) (A) (A) (A)
                 (A) (A) (A) (A) (A) (A) (A) (A) (A) (A) (A)
       Virtual   (A) (A) (A) (A) (A) (A) (A) (A) (A) (A) (A) (A)
                 (A) (A) (A) (A) (A) (A) (A) (A) (A) (A) (A) (A)
                 (A) (A) (A) (A) (A) (A) (A) (A) (A) (A) (A) (A)
                 (A) (A) (A) (A) (A) (A) (A) (A) (A) (A) (A) (A)
                 (A) (A) (A) (A) (A) (A) (A) (A) (A) (A) (A) (A)
                 (A) (A) (A) (A) (A) (A) (A) (A) (A) (A) (A) (A)
                 (A) (A) (A) (A) (A) (A) (A) (A) (A) (A) (A) (A)
                 (A) (A) (A) (A) (A) (A) (A) (A) (A) (A) (A) (A)
                 (A) (A) (A) (A) (A) (A)
 The electronic state is 1-A.
 Alpha  occ. eigenvalues --  -19.54248 -19.52324 -14.72716 -14.71775 -10.63010
 Alpha  occ. eigenvalues --  -10.61476 -10.54563 -10.53317 -10.49497  -1.15224
 Alpha  occ. eigenvalues --   -1.13607  -0.99856  -0.98692  -0.82292  -0.79688
 Alpha  occ. eigenvalues --   -0.76302  -0.64876  -0.64160  -0.58606  -0.53185
 Alpha  occ. eigenvalues --   -0.52754  -0.52385  -0.50179  -0.50163  -0.48361
 Alpha  occ. eigenvalues --   -0.47178  -0.45452  -0.45008  -0.43757  -0.43747
 Alpha  occ. eigenvalues --   -0.40476  -0.32028  -0.31102  -0.29998  -0.29594
 Alpha virt. eigenvalues --    0.02998   0.03236   0.03786   0.04324   0.04829
 Alpha virt. eigenvalues --    0.06702   0.07012   0.08023   0.08839   0.09119
 Alpha virt. eigenvalues --    0.10033   0.10624   0.11229   0.11840   0.13004
 Alpha virt. eigenvalues --    0.13046   0.13390   0.15657   0.15929   0.16220
 Alpha virt. eigenvalues --    0.17236   0.18172   0.19663   0.20348   0.20413
 Alpha virt. eigenvalues --    0.21870   0.22910   0.23281   0.23781   0.24409
 Alpha virt. eigenvalues --    0.24979   0.25451   0.26776   0.27226   0.28257
 Alpha virt. eigenvalues --    0.28681   0.29234   0.30031   0.30798   0.31279
 Alpha virt. eigenvalues --    0.31864   0.33411   0.34913   0.36001   0.36315
 Alpha virt. eigenvalues --    0.37309   0.38032   0.39208   0.40882   0.41378
 Alpha virt. eigenvalues --    0.44484   0.45851   0.46340   0.48590   0.53196
 Alpha virt. eigenvalues --    0.56234   0.67641   0.69088   0.69954   0.71205
 Alpha virt. eigenvalues --    0.71773   0.73773   0.76959   0.78915   0.79112
 Alpha virt. eigenvalues --    0.82422   0.85028   0.86063   0.91405   0.93829
 Alpha virt. eigenvalues --    0.98164   0.98497   1.01396   1.03607   1.09738
 Alpha virt. eigenvalues --    1.11572   1.12330   1.12429   1.14043   1.16715
 Alpha virt. eigenvalues --    1.17798   1.19408   1.21353   1.24147   1.25748
 Alpha virt. eigenvalues --    1.29430   1.34459   1.35600   1.36727   1.37423
 Alpha virt. eigenvalues --    1.43092   1.44529   1.48076   1.49743   1.51851
 Alpha virt. eigenvalues --    1.55521   1.58488   1.63167   1.69513   1.84797
 Alpha virt. eigenvalues --    2.05608   2.12930
          Condensed to atoms (all electrons):
               1          2          3          4          5          6
     1  C    6.536280   0.361873   0.410385   0.410381  -0.421914  -0.118401
     2  H    0.361873   0.528553  -0.026221  -0.026221  -0.047297   0.006831
     3  H    0.410385  -0.026221   0.466755  -0.022609  -0.053349  -0.004673
     4  H    0.410381  -0.026221  -0.022609   0.466755  -0.053345  -0.004673
     5  C   -0.421914  -0.047297  -0.053349  -0.053345   5.859346   0.437318
     6  O   -0.118401   0.006831  -0.004673  -0.004673   0.437318   8.481143
     7  N   -0.308992   0.008883   0.001322   0.001321  -0.091951  -0.223564
     8  H    0.012050   0.000280   0.000012   0.000013   0.019570   0.005247
     9  C   -0.253114  -0.000011  -0.004284  -0.004283  -0.840640  -0.049183
    10  H   -0.001592  -0.000001   0.000016  -0.000005   0.001810   0.001090
    11  H   -0.001592  -0.000001  -0.000005   0.000016   0.001810   0.001089
    12  C    0.123549  -0.000039  -0.000586  -0.000586   0.496453   0.018685
    13  O   -0.001998  -0.000003   0.000002   0.000002   0.008852  -0.000302
    14  N   -0.000098   0.000016  -0.000002  -0.000002   0.014208  -0.002359
    15  H    0.000088   0.000000   0.000000   0.000000   0.001279   0.000099
    16  C    0.000678   0.000005   0.000000   0.000000   0.006779  -0.000274
    17  H    0.000002   0.000000   0.000000   0.000000   0.000026   0.000000
    18  H   -0.000003   0.000000   0.000000   0.000000  -0.000109   0.000000
    19  H    0.000002   0.000000   0.000000   0.000000   0.000026   0.000000
               7          8          9         10         11         12
     1  C   -0.308992   0.012050  -0.253114  -0.001592  -0.001592   0.123549
     2  H    0.008883   0.000280  -0.000011  -0.000001  -0.000001  -0.000039
     3  H    0.001322   0.000012  -0.004284   0.000016  -0.000005  -0.000586
     4  H    0.001321   0.000013  -0.004283  -0.000005   0.000016  -0.000586
     5  C   -0.091951   0.019570  -0.840640   0.001810   0.001810   0.496453
     6  O   -0.223564   0.005247  -0.049183   0.001090   0.001089   0.018685
     7  N    7.783011   0.263040   0.298296  -0.048851  -0.048850  -0.114949
     8  H    0.263040   0.306941  -0.070579   0.001913   0.001913   0.031409
     9  C    0.298296  -0.070579  11.658507   0.334950   0.334935  -3.968803
    10  H   -0.048851   0.001913   0.334950   0.492085  -0.037334  -0.003197
    11  H   -0.048850   0.001913   0.334935  -0.037334   0.492081  -0.003181
    12  C   -0.114949   0.031409  -3.968803  -0.003197  -0.003181   8.006328
    13  O    0.020679   0.006977   0.068745   0.000685   0.000685   0.234281
    14  N    0.014483   0.002915  -0.767099   0.014925   0.014926   0.492517
    15  H    0.000246  -0.000008   0.037193  -0.000382  -0.000382  -0.031010
    16  C    0.002819   0.000889  -0.213796   0.003085   0.003086  -0.006548
    17  H   -0.000029   0.000000   0.006250   0.000011  -0.000004  -0.001945
    18  H   -0.000097   0.000000  -0.009730  -0.000005  -0.000005  -0.010233
    19  H   -0.000029   0.000000   0.006252  -0.000004   0.000011  -0.001946
              13         14         15         16         17         18
     1  C   -0.001998  -0.000098   0.000088   0.000678   0.000002  -0.000003
     2  H   -0.000003   0.000016   0.000000   0.000005   0.000000   0.000000
     3  H    0.000002  -0.000002   0.000000   0.000000   0.000000   0.000000
     4  H    0.000002  -0.000002   0.000000   0.000000   0.000000   0.000000
     5  C    0.008852   0.014208   0.001279   0.006779   0.000026  -0.000109
     6  O   -0.000302  -0.002359   0.000099  -0.000274   0.000000   0.000000
     7  N    0.020679   0.014483   0.000246   0.002819  -0.000029  -0.000097
     8  H    0.006977   0.002915  -0.000008   0.000889   0.000000   0.000000
     9  C    0.068745  -0.767099   0.037193  -0.213796   0.006250  -0.009730
    10  H    0.000685   0.014925  -0.000382   0.003085   0.000011  -0.000005
    11  H    0.000685   0.014926  -0.000382   0.003086  -0.000004  -0.000005
    12  C    0.234281   0.492517  -0.031010  -0.006548  -0.001945  -0.010233
    13  O    8.480085  -0.221530   0.007384  -0.032332   0.000334   0.006439
    14  N   -0.221530   7.678083   0.273082   0.189334  -0.043569  -0.047547
    15  H    0.007384   0.273082   0.368164  -0.023565  -0.000929   0.002517
    16  C   -0.032332   0.189334  -0.023565   5.305515   0.382332   0.416280
    17  H    0.000334  -0.043569  -0.000929   0.382332   0.511663  -0.023286
    18  H    0.006439  -0.047547   0.002517   0.416280  -0.023286   0.446122
    19  H    0.000334  -0.043566  -0.000930   0.382330  -0.036270  -0.023286
              19
     1  C    0.000002
     2  H    0.000000
     3  H    0.000000
     4  H    0.000000
     5  C    0.000026
     6  O    0.000000
     7  N   -0.000029
     8  H    0.000000
     9  C    0.006252
    10  H   -0.000004
    11  H    0.000011
    12  C   -0.001946
    13  O    0.000334
    14  N   -0.043566
    15  H   -0.000930
    16  C    0.382330
    17  H   -0.036270
    18  H   -0.023286
    19  H    0.511663
 Mulliken charges:
               1
     1  C   -0.747585
     2  H    0.193353
     3  H    0.233237
     4  H    0.233237
     5  C    0.661130
     6  O   -0.548073
     7  N   -0.556787
     8  H    0.417418
     9  C   -0.563605
    10  H    0.240801
    11  H    0.240802
    12  C    0.739801
    13  O   -0.579320
    14  N   -0.568716
    15  H    0.367154
    16  C   -0.416617
    17  H    0.205415
    18  H    0.242943
    19  H    0.205413
 Sum of Mulliken charges =   0.00000
 Mulliken charges with hydrogens summed into heavy atoms:
               1
     1  C   -0.087758
     5  C    0.661130
     6  O   -0.548073
     7  N   -0.139369
     9  C   -0.082002
    12  C    0.739801
    13  O   -0.579320
    14  N   -0.201562
    16  C    0.237154
 APT charges:
               1
     1  C   -1.816295
     2  H    0.373072
     3  H    0.670303
     4  H    0.670295
     5  C    0.504756
     6  O   -0.508116
     7  N   -0.630446
     8  H    0.567250
     9  C   -0.826400
    10  H    0.438523
    11  H    0.438521
    12  C    0.397940
    13  O   -0.568252
    14  N   -0.185977
    15  H    0.535081
    16  C   -1.814592
    17  H    0.664304
    18  H    0.425710
    19  H    0.664321
 Sum of APT charges =   0.00000
 APT charges with hydrogens summed into heavy atoms:
               1
     1  C   -0.102624
     5  C    0.504756
     6  O   -0.508116
     7  N   -0.063196
     9  C    0.050645
    12  C    0.397940
    13  O   -0.568252
    14  N    0.349105
    16  C   -0.060257
 Electronic spatial extent (au):  <R**2>=           2100.9472
 Charge=              0.0000 electrons
 Dipole moment (field-independent basis, Debye):
    X=              2.5298    Y=             -0.3740    Z=             -0.0001  Tot=              2.5572
 Quadrupole moment (field-independent basis, Debye-Ang):
   XX=            -41.0266   YY=            -61.5722   ZZ=            -55.4299
   XY=            -18.1615   XZ=              0.0012   YZ=              0.0006
 Traceless Quadrupole moment (field-independent basis, Debye-Ang):
   XX=             11.6497   YY=             -8.8960   ZZ=             -2.7536
   XY=            -18.1615   XZ=              0.0012   YZ=              0.0006
 Octapole moment (field-independent basis, Debye-Ang**2):
  XXX=             46.0243  YYY=             -1.3417  ZZZ=              0.0003  XYY=             11.2590
  XXY=             14.0428  XXZ=             -0.0012  XZZ=             -1.3521  YZZ=             -1.9376
  YYZ=             -0.0003  XYZ=             -0.0012
 Hexadecapole moment (field-independent basis, Debye-Ang**3):
 XXXX=          -1995.9183 YYYY=           -306.7280 ZZZZ=            -75.0497 XXXY=           -102.0478
 XXXZ=              0.0144 YYYX=            -52.1918 YYYZ=              0.0082 ZZZX=              0.0073
 ZZZY=              0.0078 XXYY=           -487.0596 XXZZ=           -401.5090 YYZZ=            -62.4435
 XXYZ=              0.0071 YYXZ=              0.0081 ZZXY=              2.9451
 N-N= 4.265638722941D+02 E-N=-1.917639250684D+03  KE= 4.526254772595D+02
  Exact polarizability:   0.000   0.000   0.000   0.000   0.000   0.000
 Approx polarizability: 101.326  -0.828 112.478   0.000  -0.003  63.300
 No NMR shielding tensors so no spin-rotation constants.
 Leave Link  601 at Wed Sep  3 14:20:36 2025, MaxMem=  8053063680 cpu:         1.3
 (Enter /nexus/posix0/bmm/home/sucerqdl/sw/g09/l701.exe)
 Compute integral second derivatives.
 ... and contract with generalized density number  0.
 Leave Link  701 at Wed Sep  3 14:20:36 2025, MaxMem=  8053063680 cpu:         1.5
 (Enter /nexus/posix0/bmm/home/sucerqdl/sw/g09/l702.exe)
 L702 exits ... SP integral derivatives will be done elsewhere.
 Leave Link  702 at Wed Sep  3 14:20:36 2025, MaxMem=  8053063680 cpu:         0.3
 (Enter /nexus/posix0/bmm/home/sucerqdl/sw/g09/l703.exe)
 Compute integral second derivatives, UseDBF=F ICtDFT=           0.
 Integral derivatives from FoFJK, PRISM(SPDF).
 Calling FoFJK, ICntrl=    100147 FMM=F ISym2X=0 I1Cent= 0 IOpClX= 0 NMat=1 NMatS=1 NMatT=0.
 FoFJK:  IHMeth= 1 ICntrl=  100147 DoSepK=F KAlg= 0 I1Cent=   0 FoldK=F
 IRaf=         0 NMat=   1 IRICut=       1 DoRegI=T DoRafI=F ISym2E= 0.
 FoFCou: FMM=F IPFlag=           0 FMFlag=      100000 FMFlg1=         800
         NFxFlg=           0 DoJE=F BraDBF=F KetDBF=F FulRan=T
         wScrn=  0.000000 ICntrl=  100147 IOpCl=  0 I1Cent=           0 NGrid=           0
         NMat0=    1 NMatS0=      1 NMatT0=    0 NMatD0=    1 NMtDS0=    0 NMtDT0=    0
 Symmetry not used in FoFCou.
 Leave Link  703 at Wed Sep  3 14:20:43 2025, MaxMem=  8053063680 cpu:       104.4
 (Enter /nexus/posix0/bmm/home/sucerqdl/sw/g09/l716.exe)
 Dipole        = 9.95280615D-01-1.47132677D-01-2.69958189D-05
 Polarizability= 0.00000000D+00 0.00000000D+00 0.00000000D+00
                 0.00000000D+00 0.00000000D+00 0.00000000D+00
 ***** Axes restored to original set *****
 -------------------------------------------------------------------
 Center     Atomic                   Forces (Hartrees/Bohr)
 Number     Number              X              Y              Z
 -------------------------------------------------------------------
      1        6           0.041641513   -0.002882904   -0.000000633
      2        1          -0.000048711   -0.000051945    0.000000048
      3        1           0.004765891    0.000596772    0.002159278
      4        1           0.004765332    0.000596022   -0.002158660
      5        6           0.006353647    0.000110540   -0.000000166
      6        8          -0.000694096    0.004792922   -0.000000417
      7        7          -0.002134917   -0.005364323    0.000000295
      8        1          -0.000553614    0.000210265    0.000000012
      9        6          -0.001975333    0.001317272    0.000000533
     10        1          -0.000521861    0.000766731   -0.000031348
     11        1          -0.000521380    0.000766974    0.000031175
     12        6           0.005143726    0.000166672   -0.000000133
     13        8           0.000618822   -0.004452844    0.000000406
     14        7          -0.003659788    0.005794043   -0.000000649
     15        1           0.000724008   -0.000304413    0.000000008
     16        6          -0.043219153   -0.002672637   -0.000000164
     17        1          -0.005163298    0.000374504    0.002123838
     18        1          -0.000357448   -0.000138068    0.000000054
     19        1          -0.005163342    0.000374416   -0.002123479
 -------------------------------------------------------------------
 Cartesian Forces:  Max     0.043219153 RMS     0.008308471
 FormGI is forming the generalized inverse of G from B-inverse, IUseBI=4.
 GSVD:  received Info=                   1 from GESDD.
 Leave Link  716 at Wed Sep  3 14:20:43 2025, MaxMem=  8053063680 cpu:         0.4
 (Enter /nexus/posix0/bmm/home/sucerqdl/sw/g09/l103.exe)

 GradGradGradGradGradGradGradGradGradGradGradGradGradGradGradGradGradGrad
 Berny optimization.
 Red2BG is reusing G-inverse.
 Internal  Forces:  Max     0.044970553 RMS     0.005999501
 Search for a local minimum.
 Step number   1 out of a maximum of   91
 All quantities printed in internal units (Hartrees-Bohrs-Radians)
 RMS Force = .28046D-02 SwitMx=.10000D-02 MixMth= 1
 Mixed Optimization -- RFO/linear search
 Second derivative matrix not updated -- analytic derivatives used.
 ITU=  0
     Eigenvalues ---    0.00029   0.00086   0.00196   0.00455   0.00721
     Eigenvalues ---    0.00841   0.02067   0.03028   0.04247   0.05068
     Eigenvalues ---    0.05382   0.05869   0.06124   0.06433   0.06696
     Eigenvalues ---    0.08484   0.09281   0.10379   0.11058   0.11911
     Eigenvalues ---    0.12638   0.13029   0.13551   0.14579   0.14820
     Eigenvalues ---    0.17064   0.17471   0.18317   0.19133   0.20732
     Eigenvalues ---    0.21506   0.23564   0.24782   0.25657   0.28222
     Eigenvalues ---    0.33809   0.33884   0.34239   0.34398   0.34654
     Eigenvalues ---    0.34835   0.34849   0.35601   0.36258   0.36362
     Eigenvalues ---    0.42284   0.48402   0.48764   0.74362   0.76040
     Eigenvalues --- 1000.000001000.000001000.000001000.000001000.00000
     Eigenvalues --- 1000.000001000.000001000.000001000.000001000.00000
     Eigenvalues --- 1000.000001000.000001000.000001000.000001000.00000
     Eigenvalues --- 1000.000001000.000001000.000001000.000001000.00000
     Eigenvalues --- 1000.000001000.000001000.000001000.000001000.00000
     Eigenvalues --- 1000.000001000.000001000.000001000.000001000.00000
     Eigenvalues --- 1000.00000
 RFO step:  Lambda=-2.17479232D-03 EMin= 2.86036235D-04
 Linear search not attempted -- first point.
 Iteration  1 RMS(Cart)=  0.04951892 RMS(Int)=  0.00106576
 Iteration  2 RMS(Cart)=  0.00102872 RMS(Int)=  0.00020018
 Iteration  3 RMS(Cart)=  0.00000195 RMS(Int)=  0.00020018
 Iteration  4 RMS(Cart)=  0.00000001 RMS(Int)=  0.00020018
 Iteration  1 RMS(Cart)=  0.00009603 RMS(Int)=  0.00001994
 Iteration  2 RMS(Cart)=  0.00001166 RMS(Int)=  0.00002098
 Iteration  3 RMS(Cart)=  0.00000142 RMS(Int)=  0.00002124
 Iteration  4 RMS(Cart)=  0.00000017 RMS(Int)=  0.00002127
 ITry= 1 IFail=0 DXMaxC= 1.27D-01 DCOld= 1.00D+10 DXMaxT= 3.00D-01 DXLimC= 3.00D+00 Rises=F
 Variable       Old X    -DE/DX   Delta X   Delta X   Delta X     New X
                                 (Linear)    (Quad)   (Total)
    R1        2.07085  -0.00005   0.00000  -0.00108  -0.00108   2.06977
    R2        2.08014  -0.00424   0.00000  -0.01356  -0.01356   2.06658
    R3        2.08014  -0.00424   0.00000  -0.01356  -0.01356   2.06658
    R4        3.06936  -0.00632   0.00000   0.00827   0.00881   3.07818
    R5       15.27975  -0.04497   0.00000   0.00000   0.00000  15.27975
    R6        2.35736  -0.00482   0.00000  -0.00218  -0.00218   2.35518
    R7        2.68508  -0.01182   0.00000  -0.02457  -0.02407   2.66101
    R8        1.91297   0.00019   0.00000  -0.00015  -0.00015   1.91282
    R9        2.87903  -0.00894   0.00000  -0.01530  -0.01479   2.86424
   R10        2.07888  -0.00044   0.00000  -0.00102  -0.00102   2.07786
   R11        2.07888  -0.00044   0.00000  -0.00102  -0.00102   2.07786
   R12        3.03764  -0.00558   0.00000  -0.00447  -0.00398   3.03366
   R13        2.34389  -0.00448   0.00000  -0.00356  -0.00356   2.34033
   R14        2.67874  -0.01198   0.00000  -0.02552  -0.02502   2.65372
   R15        1.91288   0.00025   0.00000   0.00090   0.00090   1.91378
   R16        2.94632  -0.00912   0.00000  -0.00399  -0.00343   2.94289
   R17        2.08003  -0.00431   0.00000  -0.01358  -0.01358   2.06645
   R18        2.06755  -0.00013   0.00000  -0.00113  -0.00113   2.06642
   R19        2.08003  -0.00431   0.00000  -0.01357  -0.01357   2.06645
    A1        1.92380   0.00137   0.00000   0.01083   0.01088   1.93468
    A2        1.92380   0.00137   0.00000   0.01083   0.01088   1.93467
    A3        1.96954   0.00148   0.00000   0.01359   0.01364   1.98318
    A4        1.89206   0.00347   0.00000   0.02713   0.02658   1.91864
    A5        1.87608  -0.00390   0.00000  -0.03166  -0.03185   1.84423
    A6        1.87608  -0.00390   0.00000  -0.03166  -0.03185   1.84423
    A7        2.03010  -0.00129   0.00000  -0.02093  -0.02115   2.00895
    A8        2.19507   0.00136   0.00000   0.02162   0.02207   2.21714
    A9        2.05802  -0.00008   0.00000  -0.00070  -0.00092   2.05710
   A10        2.13696   0.00296   0.00000   0.00120   0.00116   2.13812
   A11        2.11113  -0.00699   0.00000  -0.01346  -0.01337   2.09776
   A12        2.03509   0.00403   0.00000   0.01226   0.01222   2.04731
   A13        1.88399  -0.00105   0.00000  -0.00654  -0.00669   1.87729
   A14        1.88398  -0.00105   0.00000  -0.00654  -0.00669   1.87729
   A15        2.05348   0.00197   0.00000   0.01315   0.01363   2.06712
   A16        1.85863   0.00064   0.00000   0.00179   0.00181   1.86044
   A17        1.88741  -0.00029   0.00000  -0.00132  -0.00145   1.88597
   A18        1.88743  -0.00029   0.00000  -0.00133  -0.00146   1.88597
   A19        2.10028   0.00364   0.00000   0.00420   0.00410   2.10438
   A20        2.03451  -0.00638   0.00000  -0.00872  -0.00852   2.02599
   A21        2.14840   0.00274   0.00000   0.00452   0.00442   2.15282
   A22        2.01284   0.00010   0.00000   0.00058   0.00041   2.01325
   A23        2.28099   0.00122   0.00000   0.01733   0.01767   2.29866
   A24        1.98936  -0.00132   0.00000  -0.01791  -0.01808   1.97128
   A25        1.91883  -0.00433   0.00000  -0.02863  -0.02884   1.89000
   A26        1.86541   0.00093   0.00000   0.00708   0.00708   1.87249
   A27        1.91883  -0.00433   0.00000  -0.02863  -0.02884   1.88999
   A28        1.91982   0.00172   0.00000   0.01061   0.01061   1.93043
   A29        1.92045   0.00414   0.00000   0.02797   0.02754   1.94799
   A30        1.91982   0.00172   0.00000   0.01061   0.01061   1.93043
    D1       -3.14157   0.00000   0.00000  -0.00001  -0.00001  -3.14158
    D2        0.00002   0.00000   0.00000   0.00000   0.00000   0.00001
    D3       -1.01676  -0.00004   0.00000   0.00031   0.00005  -1.01672
    D4        2.12483  -0.00004   0.00000   0.00031   0.00005   2.12488
    D5        1.01681   0.00004   0.00000  -0.00032  -0.00006   1.01675
    D6       -2.12479   0.00004   0.00000  -0.00032  -0.00005  -2.12484
    D7        0.00000   0.00000   0.00000  -0.00001  -0.00001  -0.00001
    D8       -3.14158   0.00000   0.00000  -0.00001  -0.00001  -3.14159
    D9        3.14159   0.00000   0.00000  -0.00001  -0.00001   3.14158
   D10        0.00001   0.00000   0.00000  -0.00001  -0.00001   0.00000
   D11        1.00134  -0.00016   0.00000  -0.00230  -0.00232   0.99903
   D12       -1.00128   0.00016   0.00000   0.00224   0.00226  -0.99902
   D13       -3.14157   0.00000   0.00000  -0.00003  -0.00003  -3.14159
   D14       -2.14024  -0.00016   0.00000  -0.00230  -0.00232  -2.14255
   D15        2.14033   0.00016   0.00000   0.00224   0.00226   2.14259
   D16        0.00004   0.00000   0.00000  -0.00003  -0.00003   0.00001
   D17       -0.00003   0.00000   0.00000   0.00001   0.00001  -0.00001
   D18        3.14157   0.00000   0.00000   0.00001   0.00001   3.14158
   D19        2.13850  -0.00022   0.00000  -0.00035  -0.00030   2.13820
   D20       -1.00308  -0.00022   0.00000  -0.00036  -0.00031  -1.00339
   D21       -2.13856   0.00022   0.00000   0.00038   0.00032  -2.13824
   D22        1.00304   0.00022   0.00000   0.00037   0.00032   1.00336
   D23       -0.00001   0.00000   0.00000   0.00001   0.00001  -0.00001
   D24        3.14157   0.00000   0.00000   0.00001   0.00001   3.14158
   D25        3.14159   0.00000   0.00000   0.00000   0.00000   3.14159
   D26       -0.00001   0.00000   0.00000   0.00000   0.00000  -0.00001
   D27       -2.08313  -0.00022   0.00000  -0.00108  -0.00090  -2.08403
   D28        0.00006   0.00000   0.00000  -0.00001  -0.00001   0.00005
   D29        2.08324   0.00022   0.00000   0.00106   0.00088   2.08412
   D30        1.05846  -0.00022   0.00000  -0.00107  -0.00090   1.05756
   D31       -3.14154   0.00000   0.00000  -0.00001  -0.00001  -3.14155
   D32       -1.05836   0.00022   0.00000   0.00106   0.00088  -1.05748
         Item               Value     Threshold  Converged?
 Maximum Force            0.007384     0.000450     NO 
 RMS     Force            0.002805     0.000300     NO 
 Maximum Displacement     0.126725     0.001800     NO 
 RMS     Displacement     0.049888     0.001200     NO 
 Predicted change in Energy=-1.073762D-03
 Lowest energy point so far.  Saving SCF results.
 GradGradGradGradGradGradGradGradGradGradGradGradGradGradGradGradGradGrad

 Leave Link  103 at Wed Sep  3 14:20:43 2025, MaxMem=  8053063680 cpu:         0.5
 (Enter /nexus/posix0/bmm/home/sucerqdl/sw/g09/l202.exe)
                          Input orientation:                          
 ---------------------------------------------------------------------
 Center     Atomic      Atomic             Coordinates (Angstroms)
 Number     Number       Type             X           Y           Z
 ---------------------------------------------------------------------
      1          6           0       -0.002888   -0.031714   -0.000003
      2          1           0       -0.036221    1.063055   -0.000082
      3          1           0       -0.483418   -0.435802   -0.895401
      4          1           0       -0.483405   -0.435669    0.895463
      5          6           0        1.508635   -0.638852    0.000032
      6          8           0        1.578647   -1.883192    0.000107
      7          7           0        2.714596    0.088152   -0.000012
      8          1           0        2.739714    1.100062   -0.000081
      9          6           0        4.043775   -0.640274    0.000028
     10          1           0        4.062086   -1.297225   -0.881507
     11          1           0        4.062086   -1.297130    0.881634
     12          6           0        5.392581    0.230272   -0.000023
     13          8           0        5.343592    1.467755   -0.000109
     14          7           0        6.595274   -0.494682    0.000031
     15          1           0        6.494166   -1.502351    0.000104
     16          6           0        8.082808   -0.033754   -0.000004
     17          1           0        8.561473   -0.419209   -0.904488
     18          1           0        8.084139    1.059748   -0.000039
     19          1           0        8.561494   -0.419152    0.904493
 ---------------------------------------------------------------------
                    Distance matrix (angstroms):
                    1          2          3          4          5
     1  C    0.000000
     2  H    1.095276   0.000000
     3  H    1.093588   1.802264   0.000000
     4  H    1.093589   1.802262   1.790865   0.000000
     5  C    1.628901   2.298492   2.193468   2.193468   0.000000
     6  O    2.435000   3.359787   2.673758   2.673770   1.246308
     7  N    2.720127   2.918464   3.362075   3.362065   1.408147
     8  H    2.966948   2.776181   3.680904   3.680892   2.130581
     9  C    4.092167   4.421278   4.619424   4.619419   2.535141
    10  H    4.347710   4.810816   4.626430   4.955945   2.780410
    11  H    4.347709   4.810823   4.955941   4.626424   2.780408
    12  C    5.401826   5.492305   5.981030   5.981019   3.980002
    13  O    5.552770   5.395013   6.195088   6.195076   4.375464
    14  N    6.614384   6.811994   7.135345   7.135333   5.088682
    15  H    6.661417   7.016213   7.115204   7.115193   5.059758
    16  C    8.085696   8.192779   8.622274   8.622263   6.601962
    17  H    8.620703   8.771282   9.044911   9.222251   7.113995
    18  H    8.160349   8.120360   8.743076   8.743055   6.791355
    19  H    8.620722   8.771310   9.222273   9.044918   7.114010
                    6          7          8          9         10
     6  O    0.000000
     7  N    2.275210   0.000000
     8  H    3.201231   1.012221   0.000000
     9  C    2.760743   1.515692   2.174706   0.000000
    10  H    2.699643   2.124155   2.876207   1.099556   0.000000
    11  H    2.699635   2.124155   2.876216   1.099556   1.763141
    12  C    4.360370   2.681753   2.791817   1.605344   2.209181
    13  O    5.040204   2.968993   2.629711   2.476552   3.172417
    14  N    5.205239   3.924201   4.172355   2.555649   2.799683
    15  H    4.930250   4.100591   4.568201   2.597612   2.595058
    16  C    6.761992   5.369596   5.462069   4.084318   4.305765
    17  H    7.191760   5.938136   6.084326   4.612658   4.584313
    18  H    7.140191   5.456737   5.344577   4.383448   4.744388
    19  H    7.191765   5.938156   6.084356   4.612671   4.919906
                   11         12         13         14         15
    11  H    0.000000
    12  C    2.209184   0.000000
    13  O    3.172430   1.238452   0.000000
    14  N    2.799676   1.404289   2.327631   0.000000
    15  H    2.595037   2.053161   3.185176   1.012729   0.000000
    16  C    4.305764   2.703152   3.123754   1.557310   2.163460
    17  H    4.919904   3.358833   3.838397   2.165593   2.503047
    18  H    4.744378   2.816472   2.770752   2.152434   3.015355
    19  H    4.584325   3.358855   3.838439   2.165589   2.503015
                   16         17         18         19
    16  C    0.000000
    17  H    1.093521   0.000000
    18  H    1.093503   1.798108   0.000000
    19  H    1.093520   1.808982   1.798108   0.000000
 Stoichiometry    C5H10N2O2
 Framework group  C1[X(C5H10N2O2)]
 Deg. of freedom    51
 Full point group                 C1      NOp   1
 RotChk:  IX=0 Diff= 6.61D-04
 Largest Abelian subgroup         C1      NOp   1
 Largest concise Abelian subgroup C1      NOp   1
                         Standard orientation:                         
 ---------------------------------------------------------------------
 Center     Atomic      Atomic             Coordinates (Angstroms)
 Number     Number       Type             X           Y           Z
 ---------------------------------------------------------------------
      1          6           0       -3.905103    0.619595   -0.000008
      2          1           0       -3.818519    1.711443   -0.000088
      3          1           0       -4.426940    0.270478   -0.895407
      4          1           0       -4.426913    0.270609    0.895458
      5          6           0       -2.469038   -0.149193    0.000026
      6          8           0       -2.535520   -1.393727    0.000101
      7          7           0       -1.190808    0.441575   -0.000017
      8          1           0       -1.055185    1.444669   -0.000087
      9          6           0        0.050743   -0.427835    0.000022
     10          1           0       -0.002896   -1.082848   -0.881512
     11          1           0       -0.002885   -1.082753    0.881628
     12          6           0        1.486658    0.289994   -0.000029
     13          8           0        1.573286    1.525412   -0.000115
     14          7           0        2.602861   -0.562132    0.000025
     15          1           0        2.392167   -1.552701    0.000098
     16          6           0        4.131879   -0.266636   -0.000010
     17          1           0        4.565522   -0.702123   -0.904494
     18          1           0        4.252780    0.820163   -0.000045
     19          1           0        4.565549   -0.702068    0.904488
 ---------------------------------------------------------------------
 Rotational constants (GHZ):      5.0286258      0.5800816      0.5253105
 Leave Link  202 at Wed Sep  3 14:20:43 2025, MaxMem=  8053063680 cpu:         0.1
 (Enter /nexus/posix0/bmm/home/sucerqdl/sw/g09/l301.exe)
 Standard basis: 6-31+G (6D, 7F)
 Ernie: Thresh=  0.10000D-02 Tol=  0.10000D-05 Strict=F.
 There are   137 symmetry adapted cartesian basis functions of A   symmetry.
 There are   137 symmetry adapted basis functions of A   symmetry.
   137 basis functions,   274 primitive gaussians,   137 cartesian basis functions
    35 alpha electrons       35 beta electrons
       nuclear repulsion energy       428.0689699309 Hartrees.
 IExCor= 3226 DFT=T Ex+Corr=BMK ExCW=0 ScaHFX=  0.420000
 ScaDFX=  1.000000  1.000000  1.000000  1.000000 ScalE2=  1.000000  1.000000
 IRadAn=      0 IRanWt=     -1 IRanGd=            0 ICorTp=0 IEmpDi=  4
 NAtoms=   19 NActive=   19 NUniq=   19 SFac= 1.00D+00 NAtFMM=   60 NAOKFM=F Big=F
 Integral buffers will be    131072 words long.
 Raffenetti 2 integral format.
 Two-electron integral symmetry is turned on.
 Leave Link  301 at Wed Sep  3 14:20:43 2025, MaxMem=  8053063680 cpu:         0.6
 (Enter /nexus/posix0/bmm/home/sucerqdl/sw/g09/l302.exe)
 NPDir=0 NMtPBC=     1 NCelOv=     1 NCel=       1 NClECP=     1 NCelD=      1
         NCelK=      1 NCelE2=     1 NClLst=     1 CellRange=     0.0.
 One-electron integrals computed using PRISM.
 NBasis=   137 RedAO= T EigKep=  2.61D-05  NBF=   137
 NBsUse=   137 1.00D-06 EigRej= -1.00D+00 NBFU=   137
 Precomputing XC quadrature grid using
 IXCGrd= 4 IRadAn=           0 IRanWt=          -1 IRanGd=           0 AccXCQ= 0.00D+00.
 Generated NRdTot=       0 NPtTot=           0 NUsed=           0 NTot=          32
 NSgBfM=   137   137   137   137   137 MxSgAt=    19 MxSgA2=    19.
 Leave Link  302 at Wed Sep  3 14:20:43 2025, MaxMem=  8053063680 cpu:         1.8
 (Enter /nexus/posix0/bmm/home/sucerqdl/sw/g09/l303.exe)
 DipDrv:  MaxL=1.
 Leave Link  303 at Wed Sep  3 14:20:43 2025, MaxMem=  8053063680 cpu:         0.4
 (Enter /nexus/posix0/bmm/home/sucerqdl/sw/g09/l401.exe)
 Initial guess from the checkpoint file:  "G-stretched04.chk"
 B after Tr=     0.000000    0.000000    0.000000
         Rot=    1.000000   -0.000002    0.000000   -0.000324 Ang=  -0.04 deg.
 Guess basis will be translated and rotated to current coordinates.
 JPrj=2 DoOrth=T DoCkMO=T.
 Generating alternative initial guess.
 ExpMin= 4.38D-02 ExpMax= 5.48D+03 ExpMxC= 8.25D+02 IAcc=2 IRadAn=         4 AccDes= 0.00D+00
 Harris functional with IExCor= 1009 and IRadAn=       4 diagonalized for initial guess.
 HarFok:  IExCor= 1009 AccDes= 0.00D+00 IRadAn=         4 IDoV= 1 UseB2=F ITyADJ=14
 ICtDFT=  3500011 ScaDFX=  1.000000  1.000000  1.000000  1.000000
 FoFCou: FMM=F IPFlag=           0 FMFlag=      100000 FMFlg1=           0
         NFxFlg=           0 DoJE=T BraDBF=F KetDBF=T FulRan=T
         wScrn=  0.000000 ICntrl=     500 IOpCl=  0 I1Cent=   200000004 NGrid=           0
         NMat0=    1 NMatS0=      1 NMatT0=    0 NMatD0=    1 NMtDS0=    0 NMtDT0=    0
 Petite list used in FoFCou.
 Harris En= -455.976794529576    
 Leave Link  401 at Wed Sep  3 14:20:44 2025, MaxMem=  8053063680 cpu:         3.4
 (Enter /nexus/posix0/bmm/home/sucerqdl/sw/g09/l502.exe)
 Closed shell SCF:
 Using DIIS extrapolation, IDIIS=  1040.
 Integral symmetry usage will be decided dynamically.
 Keep R1 ints in memory in canonical form, NReq=46076400.
 IVT=       78102 IEndB=       78102 NGot=  8053063680 MDV=  8008301248
 LenX=  8008301248 LenY=  8008282038
 Requested convergence on RMS density matrix=1.00D-08 within 128 cycles.
 Requested convergence on MAX density matrix=1.00D-06.
 Requested convergence on             energy=1.00D-06.
 No special actions if energy rises.
 FoFCou: FMM=F IPFlag=           0 FMFlag=           0 FMFlg1=           0
         NFxFlg=           0 DoJE=F BraDBF=F KetDBF=F FulRan=T
         wScrn=  0.000000 ICntrl=     600 IOpCl=  0 I1Cent=           0 NGrid=           0
         NMat0=    1 NMatS0=   9453 NMatT0=    0 NMatD0=    1 NMtDS0=    0 NMtDT0=    0
 Symmetry not used in FoFCou.

 Cycle   1  Pass 1  IDiag  1:
 E= -456.121728572872    
 DIIS: error= 2.80D-03 at cycle   1 NSaved=   1.
 NSaved= 1 IEnMin= 1 EnMin= -456.121728572872     IErMin= 1 ErrMin= 2.80D-03
 ErrMax= 2.80D-03  0.00D+00 EMaxC= 1.00D-01 BMatC= 1.57D-03 BMatP= 1.57D-03
 IDIUse=3 WtCom= 9.72D-01 WtEn= 2.80D-02
 Coeff-Com:  0.100D+01
 Coeff-En:   0.100D+01
 Coeff:      0.100D+01
 Gap=     0.506 Goal=   None    Shift=    0.000
 GapD=    0.506 DampG=2.000 DampE=1.000 DampFc=2.0000 IDamp=-1.
 RMSDP=1.52D-03 MaxDP=7.28D-02              OVMax= 1.28D-02

 Cycle   2  Pass 1  IDiag  1:
 E= -456.124224287701     Delta-E=       -0.002495714829 Rises=F Damp=F
 DIIS: error= 1.22D-03 at cycle   2 NSaved=   2.
 NSaved= 2 IEnMin= 2 EnMin= -456.124224287701     IErMin= 2 ErrMin= 1.22D-03
 ErrMax= 1.22D-03  0.00D+00 EMaxC= 1.00D-01 BMatC= 1.15D-04 BMatP= 1.57D-03
 IDIUse=3 WtCom= 9.88D-01 WtEn= 1.22D-02
 Coeff-Com:  0.170D-01 0.983D+00
 Coeff-En:   0.000D+00 0.100D+01
 Coeff:      0.168D-01 0.983D+00
 Gap=     0.328 Goal=   None    Shift=    0.000
 RMSDP=3.56D-04 MaxDP=1.17D-02 DE=-2.50D-03 OVMax= 7.44D-03

 Cycle   3  Pass 1  IDiag  1:
 E= -456.124153794282     Delta-E=        0.000070493419 Rises=F Damp=F
 DIIS: error= 2.00D-03 at cycle   3 NSaved=   3.
 NSaved= 3 IEnMin= 2 EnMin= -456.124224287701     IErMin= 2 ErrMin= 1.22D-03
 ErrMax= 2.00D-03  0.00D+00 EMaxC= 1.00D-01 BMatC= 2.66D-04 BMatP= 1.15D-04
 IDIUse=3 WtCom= 1.83D-01 WtEn= 8.17D-01
 Coeff-Com: -0.643D-01 0.649D+00 0.416D+00
 Coeff-En:   0.000D+00 0.609D+00 0.391D+00
 Coeff:     -0.118D-01 0.616D+00 0.395D+00
 Gap=     0.328 Goal=   None    Shift=    0.000
 RMSDP=2.25D-04 MaxDP=8.98D-03 DE= 7.05D-05 OVMax= 4.87D-03

 Cycle   4  Pass 1  IDiag  1:
 E= -456.124361296633     Delta-E=       -0.000207502351 Rises=F Damp=F
 DIIS: error= 2.38D-04 at cycle   4 NSaved=   4.
 NSaved= 4 IEnMin= 4 EnMin= -456.124361296633     IErMin= 4 ErrMin= 2.38D-04
 ErrMax= 2.38D-04  0.00D+00 EMaxC= 1.00D-01 BMatC= 4.38D-06 BMatP= 1.15D-04
 IDIUse=3 WtCom= 9.98D-01 WtEn= 2.38D-03
 Coeff-Com: -0.244D-01 0.141D+00 0.157D+00 0.726D+00
 Coeff-En:   0.000D+00 0.000D+00 0.000D+00 0.100D+01
 Coeff:     -0.244D-01 0.141D+00 0.157D+00 0.727D+00
 Gap=     0.328 Goal=   None    Shift=    0.000
 RMSDP=4.36D-05 MaxDP=1.36D-03 DE=-2.08D-04 OVMax= 6.90D-04

 Cycle   5  Pass 1  IDiag  1:
 E= -456.124365034235     Delta-E=       -0.000003737602 Rises=F Damp=F
 DIIS: error= 5.39D-05 at cycle   5 NSaved=   5.
 NSaved= 5 IEnMin= 5 EnMin= -456.124365034235     IErMin= 5 ErrMin= 5.39D-05
 ErrMax= 5.39D-05  0.00D+00 EMaxC= 1.00D-01 BMatC= 6.12D-07 BMatP= 4.38D-06
 IDIUse=1 WtCom= 1.00D+00 WtEn= 0.00D+00
 Coeff-Com: -0.166D-02-0.307D-01 0.107D-01 0.334D+00 0.688D+00
 Coeff:     -0.166D-02-0.307D-01 0.107D-01 0.334D+00 0.688D+00
 Gap=     0.328 Goal=   None    Shift=    0.000
 RMSDP=1.28D-05 MaxDP=3.05D-04 DE=-3.74D-06 OVMax= 1.52D-04

 Cycle   6  Pass 1  IDiag  1:
 E= -456.124365580156     Delta-E=       -0.000000545921 Rises=F Damp=F
 DIIS: error= 2.04D-05 at cycle   6 NSaved=   6.
 NSaved= 6 IEnMin= 6 EnMin= -456.124365580156     IErMin= 6 ErrMin= 2.04D-05
 ErrMax= 2.04D-05  0.00D+00 EMaxC= 1.00D-01 BMatC= 4.21D-08 BMatP= 6.12D-07
 IDIUse=1 WtCom= 1.00D+00 WtEn= 0.00D+00
 Coeff-Com:  0.650D-03-0.222D-01-0.563D-02 0.110D+00 0.309D+00 0.609D+00
 Coeff:      0.650D-03-0.222D-01-0.563D-02 0.110D+00 0.309D+00 0.609D+00
 Gap=     0.328 Goal=   None    Shift=    0.000
 RMSDP=3.23D-06 MaxDP=1.14D-04 DE=-5.46D-07 OVMax= 4.11D-05

 Cycle   7  Pass 1  IDiag  1:
 E= -456.124365616593     Delta-E=       -0.000000036437 Rises=F Damp=F
 DIIS: error= 5.40D-06 at cycle   7 NSaved=   7.
 NSaved= 7 IEnMin= 7 EnMin= -456.124365616593     IErMin= 7 ErrMin= 5.40D-06
 ErrMax= 5.40D-06  0.00D+00 EMaxC= 1.00D-01 BMatC= 4.16D-09 BMatP= 4.21D-08
 IDIUse=1 WtCom= 1.00D+00 WtEn= 0.00D+00
 Coeff-Com:  0.441D-03-0.600D-02-0.423D-02 0.119D-01 0.571D-01 0.262D+00
 Coeff-Com:  0.679D+00
 Coeff:      0.441D-03-0.600D-02-0.423D-02 0.119D-01 0.571D-01 0.262D+00
 Coeff:      0.679D+00
 Gap=     0.328 Goal=   None    Shift=    0.000
 RMSDP=1.78D-06 MaxDP=3.59D-05 DE=-3.64D-08 OVMax= 2.87D-05

 Cycle   8  Pass 1  IDiag  1:
 E= -456.124365619919     Delta-E=       -0.000000003326 Rises=F Damp=F
 DIIS: error= 3.46D-06 at cycle   8 NSaved=   8.
 NSaved= 8 IEnMin= 8 EnMin= -456.124365619919     IErMin= 8 ErrMin= 3.46D-06
 ErrMax= 3.46D-06  0.00D+00 EMaxC= 1.00D-01 BMatC= 1.21D-09 BMatP= 4.16D-09
 IDIUse=1 WtCom= 1.00D+00 WtEn= 0.00D+00
 Coeff-Com:  0.207D-03-0.161D-02-0.219D-02-0.243D-02 0.538D-02 0.924D-01
 Coeff-Com:  0.415D+00 0.493D+00
[...]
 ! D30   D(15,14,16,17)         60.6023         -DE/DX =    0.0                 !
 ! D31   D(15,14,16,18)       -180.0004         -DE/DX =    0.0                 !
 ! D32   D(15,14,16,19)        -60.603          -DE/DX =    0.0                 !
 --------------------------------------------------------------------------------
 Lowest energy point so far.  Saving SCF results.
 GradGradGradGradGradGradGradGradGradGradGradGradGradGradGradGradGradGrad

 Largest change from initial coordinates is atom   17       0.088 Angstoms.
 Leave Link  103 at Wed Sep  3 14:21:00 2025, MaxMem=  8053063680 cpu:         0.5
 (Enter /nexus/posix0/bmm/home/sucerqdl/sw/g09/l202.exe)
                          Input orientation:                          
 ---------------------------------------------------------------------
 Center     Atomic      Atomic             Coordinates (Angstroms)
 Number     Number       Type             X           Y           Z
 ---------------------------------------------------------------------
      1          6           0       -0.002790   -0.028217    0.000001
      2          1           0       -0.031855    1.066634   -0.000092
      3          1           0       -0.485017   -0.430119   -0.895676
      4          1           0       -0.484993   -0.429964    0.895761
      5          6           0        1.507034   -0.641019    0.000032
      6          8           0        1.572803   -1.885423    0.000102
      7          7           0        2.715083    0.083426   -0.000011
      8          1           0        2.741784    1.095364   -0.000072
      9          6           0        4.044223   -0.645131    0.000019
     10          1           0        4.063665   -1.301698   -0.881729
     11          1           0        4.063659   -1.301630    0.881818
     12          6           0        5.391791    0.227478   -0.000017
     13          8           0        5.340337    1.464835   -0.000087
     14          7           0        6.596261   -0.495137    0.000028
     15          1           0        6.497599   -1.503054    0.000090
     16          6           0        8.082906   -0.030410   -0.000001
     17          1           0        8.562521   -0.414560   -0.904632
     18          1           0        8.081603    1.063098   -0.000075
     19          1           0        8.562519   -0.414436    0.904682
 ---------------------------------------------------------------------
                    Distance matrix (angstroms):
                    1          2          3          4          5
     1  C    0.000000
     2  H    1.095236   0.000000
     3  H    1.093757   1.802137   0.000000
     4  H    1.093758   1.802135   1.791437   0.000000
     5  C    1.629446   2.298751   2.194319   2.194322   0.000000
     6  O    2.435510   3.359995   2.674874   2.674901   1.246141
     7  N    2.720165   2.917595   3.362526   3.362509   1.408617
     8  H    2.965657   2.773788   3.679871   3.679842   2.130642
     9  C    4.093764   4.420922   4.621960   4.621954   2.537193
    10  H    4.351466   4.812438   4.631452   4.960815   2.783947
    11  H    4.351458   4.812450   4.960793   4.631440   2.783933
    12  C    5.400638   5.488180   5.980929   5.980907   3.980657
    13  O    5.547811   5.386929   6.190935   6.190903   4.373652
    14  N    6.615549   6.809629   7.137997   7.137980   5.091318
    15  H    6.665598   7.016912   7.121131   7.121120   5.064469
    16  C    8.085696   8.188580   8.623879   8.623858   6.604160
    17  H    8.621611   8.767863   9.047555   9.224921   7.116853
    18  H    8.157719   8.113459   8.741783   8.741758   6.791831
    19  H    8.621609   8.767865   9.224936   9.047531   7.116854
                    6          7          8          9         10
     6  O    0.000000
     7  N    2.276219   0.000000
     8  H    3.201814   1.012290   0.000000
     9  C    2.765184   1.515721   2.173861   0.000000
    10  H    2.706059   2.124775   2.875864   1.099517   0.000000
    11  H    2.706031   2.124773   2.875877   1.099517   1.763547
    12  C    4.364519   2.680582   2.788506   1.605424   2.209008
    13  O    5.041681   2.966522   2.624687   2.476261   3.171890
    14  N    5.212296   3.924065   4.169735   2.556442   2.800371
    15  H    4.939618   4.101750   4.567047   2.599054   2.596571
    16  C    6.769233   5.369030   5.458475   4.085197   4.306729
    17  H    7.199871   5.937917   6.081042   4.613737   4.585547
    18  H    7.145506   5.455209   5.339916   4.383889   4.744829
    19  H    7.199875   5.937917   6.081039   4.613744   4.921198
                   11         12         13         14         15
    11  H    0.000000
    12  C    2.209014   0.000000
    13  O    3.171907   1.238426   0.000000
    14  N    2.800368   1.404607   2.327840   0.000000
    15  H    2.596551   2.053668   3.185534   1.012735   0.000000
    16  C    4.306733   2.703443   3.123691   1.557589   2.163765
    17  H    4.921184   3.359176   3.838333   2.165890   2.503446
    18  H    4.744845   2.816620   2.770548   2.152751   3.015660
    19  H    4.585562   3.359174   3.838324   2.165891   2.503452
                   16         17         18         19
    16  C    0.000000
    17  H    1.093598   0.000000
    18  H    1.093509   1.798048   0.000000
    19  H    1.093598   1.809314   1.798047   0.000000
 Stoichiometry    C5H10N2O2
 Framework group  C1[X(C5H10N2O2)]
 Deg. of freedom    51
 Full point group                 C1      NOp   1
 RotChk:  IX=0 Diff= 5.30D-16
 Largest Abelian subgroup         C1      NOp   1
 Largest concise Abelian subgroup C1      NOp   1
                         Standard orientation:                         
 ---------------------------------------------------------------------
 Center     Atomic      Atomic             Coordinates (Angstroms)
 Number     Number       Type             X           Y           Z
 ---------------------------------------------------------------------
      1          6           0       -3.903522    0.624570   -0.000006
      2          1           0       -3.812562    1.716022   -0.000099
      3          1           0       -4.426845    0.277871   -0.895683
      4          1           0       -4.426805    0.278023    0.895754
      5          6           0       -2.469853   -0.149825    0.000025
      6          8           0       -2.540700   -1.393951    0.000095
      7          7           0       -1.189761    0.438024   -0.000018
      8          1           0       -1.052446    1.440958   -0.000079
      9          6           0        0.051639   -0.431652    0.000012
     10          1           0       -0.000908   -1.086401   -0.881736
     11          1           0       -0.000907   -1.086333    0.881810
     12          6           0        1.486631    0.288199   -0.000025
     13          8           0        1.570935    1.523753   -0.000095
     14          7           0        2.604760   -0.561923    0.000020
     15          1           0        2.396357   -1.552983    0.000082
     16          6           0        4.133343   -0.262728   -0.000009
     17          1           0        4.568024   -0.697071   -0.904639
     18          1           0        4.251751    0.824352   -0.000082
     19          1           0        4.568036   -0.696948    0.904675
 ---------------------------------------------------------------------
 Rotational constants (GHZ):      5.0293720      0.5797772      0.5250716
 Leave Link  202 at Wed Sep  3 14:21:00 2025, MaxMem=  8053063680 cpu:         0.1
 (Enter /nexus/posix0/bmm/home/sucerqdl/sw/g09/l601.exe)
 Copying SCF densities to generalized density rwf, IOpCl= 0 IROHF=0.

 **********************************************************************

            Population analysis using the SCF density.

 **********************************************************************

 Orbital symmetries:
       Occupied  (A) (A) (A) (A) (A) (A) (A) (A) (A) (A) (A) (A)
                 (A) (A) (A) (A) (A) (A) (A) (A) (A) (A) (A) (A)
                 (A) (A) (A) (A) (A) (A) (A) (A) (A) (A) (A)
       Virtual   (A) (A) (A) (A) (A) (A) (A) (A) (A) (A) (A) (A)
                 (A) (A) (A) (A) (A) (A) (A) (A) (A) (A) (A) (A)
                 (A) (A) (A) (A) (A) (A) (A) (A) (A) (A) (A) (A)
                 (A) (A) (A) (A) (A) (A) (A) (A) (A) (A) (A) (A)
                 (A) (A) (A) (A) (A) (A) (A) (A) (A) (A) (A) (A)
                 (A) (A) (A) (A) (A) (A) (A) (A) (A) (A) (A) (A)
                 (A) (A) (A) (A) (A) (A) (A) (A) (A) (A) (A) (A)
                 (A) (A) (A) (A) (A) (A) (A) (A) (A) (A) (A) (A)
                 (A) (A) (A) (A) (A) (A)
 The electronic state is 1-A.
 Alpha  occ. eigenvalues --  -19.54009 -19.52102 -14.72620 -14.71795 -10.62836
 Alpha  occ. eigenvalues --  -10.61294 -10.54392 -10.53274 -10.49319  -1.15220
 Alpha  occ. eigenvalues --   -1.13711  -1.00186  -0.99036  -0.82409  -0.79788
 Alpha  occ. eigenvalues --   -0.76403  -0.64991  -0.64350  -0.58716  -0.53391
 Alpha  occ. eigenvalues --   -0.52608  -0.52359  -0.50627  -0.50130  -0.48622
 Alpha  occ. eigenvalues --   -0.47271  -0.45453  -0.44860  -0.43925  -0.43597
 Alpha  occ. eigenvalues --   -0.40487  -0.31879  -0.31104  -0.29831  -0.29629
 Alpha virt. eigenvalues --    0.03190   0.03312   0.04080   0.04398   0.04871
 Alpha virt. eigenvalues --    0.06698   0.06953   0.08060   0.08774   0.09071
 Alpha virt. eigenvalues --    0.10110   0.10696   0.11221   0.11742   0.13086
 Alpha virt. eigenvalues --    0.13200   0.13381   0.15657   0.15996   0.16274
 Alpha virt. eigenvalues --    0.17372   0.18240   0.19654   0.20501   0.20534
 Alpha virt. eigenvalues --    0.21880   0.22857   0.23286   0.23971   0.24659
 Alpha virt. eigenvalues --    0.25069   0.25503   0.26928   0.27233   0.28379
 Alpha virt. eigenvalues --    0.28771   0.29024   0.30082   0.30996   0.31403
 Alpha virt. eigenvalues --    0.31915   0.33469   0.35170   0.36185   0.36426
 Alpha virt. eigenvalues --    0.37902   0.38117   0.39389   0.40919   0.41698
 Alpha virt. eigenvalues --    0.44510   0.46092   0.46416   0.48816   0.53416
 Alpha virt. eigenvalues --    0.56541   0.67630   0.69227   0.69829   0.71194
 Alpha virt. eigenvalues --    0.71594   0.74143   0.77291   0.78814   0.79306
 Alpha virt. eigenvalues --    0.82679   0.85193   0.86206   0.91490   0.94116
 Alpha virt. eigenvalues --    0.98439   0.99024   1.01406   1.03779   1.10439
 Alpha virt. eigenvalues --    1.11968   1.12336   1.12651   1.14061   1.16736
 Alpha virt. eigenvalues --    1.17813   1.19628   1.21513   1.24454   1.25508
 Alpha virt. eigenvalues --    1.29418   1.34442   1.35650   1.36923   1.37165
 Alpha virt. eigenvalues --    1.43054   1.44524   1.48537   1.49780   1.51205
 Alpha virt. eigenvalues --    1.56004   1.58160   1.64133   1.70071   1.85619
 Alpha virt. eigenvalues --    2.06294   2.13939
          Condensed to atoms (all electrons):
               1          2          3          4          5          6
     1  C    6.554916   0.353146   0.417407   0.417402  -0.425227  -0.131552
     2  H    0.353146   0.529153  -0.026161  -0.026162  -0.039599   0.007011
     3  H    0.417407  -0.026161   0.465557  -0.021454  -0.058969  -0.005061
     4  H    0.417402  -0.026162  -0.021454   0.465559  -0.058965  -0.005061
     5  C   -0.425227  -0.039599  -0.058969  -0.058965   5.912374   0.449911
     6  O   -0.131552   0.007011  -0.005061  -0.005061   0.449911   8.495325
     7  N   -0.300953   0.008685   0.001193   0.001192  -0.120627  -0.232568
     8  H    0.011413   0.000186   0.000021   0.000021   0.022325   0.005218
     9  C   -0.263723   0.001033  -0.005112  -0.005112  -0.882179  -0.046983
    10  H   -0.001973   0.000000   0.000018  -0.000006  -0.000024   0.001118
    11  H   -0.001973   0.000000  -0.000006   0.000018  -0.000025   0.001117
    12  C    0.119951  -0.000021  -0.000577  -0.000576   0.510134   0.015240
    13  O   -0.001600  -0.000001   0.000002   0.000002   0.008475  -0.000273
    14  N   -0.000081   0.000016  -0.000002  -0.000002   0.015267  -0.002954
    15  H    0.000084   0.000000   0.000000   0.000000   0.001569   0.000124
    16  C    0.000638   0.000004   0.000000   0.000000   0.006813  -0.000346
    17  H    0.000002   0.000000   0.000000   0.000000   0.000035   0.000000
    18  H   -0.000003   0.000000   0.000000   0.000000  -0.000113   0.000000
    19  H    0.000002   0.000000   0.000000   0.000000   0.000035   0.000000
               7          8          9         10         11         12
     1  C   -0.300953   0.011413  -0.263723  -0.001973  -0.001973   0.119951
     2  H    0.008685   0.000186   0.001033   0.000000   0.000000  -0.000021
     3  H    0.001193   0.000021  -0.005112   0.000018  -0.000006  -0.000577
     4  H    0.001192   0.000021  -0.005112  -0.000006   0.000018  -0.000576
     5  C   -0.120627   0.022325  -0.882179  -0.000024  -0.000025   0.510134
     6  O   -0.232568   0.005218  -0.046983   0.001118   0.001117   0.015240
     7  N    7.828465   0.261863   0.291340  -0.050342  -0.050342  -0.114214
     8  H    0.261863   0.305389  -0.070727   0.001947   0.001947   0.031634
     9  C    0.291340  -0.070727  11.854460   0.335554   0.335548  -4.067341
    10  H   -0.050342   0.001947   0.335554   0.491769  -0.037223  -0.001482
    11  H   -0.050342   0.001947   0.335548  -0.037223   0.491768  -0.001475
    12  C   -0.114214   0.031634  -4.067341  -0.001482  -0.001475   8.069900
    13  O    0.019685   0.006562   0.081011   0.000628   0.000628   0.226198
    14  N    0.015466   0.003026  -0.824712   0.016144   0.016144   0.516119
    15  H    0.000341  -0.000008   0.041463  -0.000380  -0.000380  -0.033305
    16  C    0.002908   0.000855  -0.225036   0.003314   0.003314   0.003753
    17  H   -0.000033   0.000000   0.006726   0.000013  -0.000004  -0.003232
    18  H   -0.000068   0.000000  -0.010069  -0.000005  -0.000005  -0.008663
    19  H   -0.000033   0.000000   0.006726  -0.000004   0.000013  -0.003233
              13         14         15         16         17         18
     1  C   -0.001600  -0.000081   0.000084   0.000638   0.000002  -0.000003
     2  H   -0.000001   0.000016   0.000000   0.000004   0.000000   0.000000
     3  H    0.000002  -0.000002   0.000000   0.000000   0.000000   0.000000
     4  H    0.000002  -0.000002   0.000000   0.000000   0.000000   0.000000
     5  C    0.008475   0.015267   0.001569   0.006813   0.000035  -0.000113
     6  O   -0.000273  -0.002954   0.000124  -0.000346   0.000000   0.000000
     7  N    0.019685   0.015466   0.000341   0.002908  -0.000033  -0.000068
     8  H    0.006562   0.003026  -0.000008   0.000855   0.000000   0.000000
     9  C    0.081011  -0.824712   0.041463  -0.225036   0.006726  -0.010069
    10  H    0.000628   0.016144  -0.000380   0.003314   0.000013  -0.000005
    11  H    0.000628   0.016144  -0.000380   0.003314  -0.000004  -0.000005
    12  C    0.226198   0.516119  -0.033305   0.003753  -0.003232  -0.008663
    13  O    8.488869  -0.227834   0.007576  -0.032735   0.000311   0.006035
    14  N   -0.227834   7.727360   0.270887   0.186641  -0.045684  -0.046909
    15  H    0.007576   0.270887   0.369890  -0.025492  -0.001099   0.002564
    16  C   -0.032735   0.186641  -0.025492   5.301275   0.385754   0.415270
    17  H    0.000311  -0.045684  -0.001099   0.385754   0.508394  -0.022947
    18  H    0.006035  -0.046909   0.002564   0.415270  -0.022947   0.445027
    19  H    0.000311  -0.045683  -0.001099   0.385753  -0.034954  -0.022947
              19
     1  C    0.000002
     2  H    0.000000
     3  H    0.000000
     4  H    0.000000
     5  C    0.000035
     6  O    0.000000
     7  N   -0.000033
     8  H    0.000000
     9  C    0.006726
    10  H   -0.000004
    11  H    0.000013
    12  C   -0.003233
    13  O    0.000311
    14  N   -0.045683
    15  H   -0.001099
    16  C    0.385753
    17  H   -0.034954
    18  H   -0.022947
    19  H    0.508393
 Mulliken charges:
               1
     1  C   -0.747876
     2  H    0.192711
     3  H    0.233145
     4  H    0.233144
     5  C    0.658787
     6  O   -0.550266
     7  N   -0.561959
     8  H    0.418329
     9  C   -0.552867
    10  H    0.240935
    11  H    0.240935
    12  C    0.741191
    13  O   -0.583852
    14  N   -0.573211
    15  H    0.367265
    16  C   -0.412682
    17  H    0.206718
    18  H    0.242834
    19  H    0.206719
 Sum of Mulliken charges =   0.00000
 Mulliken charges with hydrogens summed into heavy atoms:
               1
     1  C   -0.088876
     5  C    0.658787
     6  O   -0.550266
     7  N   -0.143630
     9  C   -0.070997
    12  C    0.741191
    13  O   -0.583852
    14  N   -0.205946
    16  C    0.243589
 Electronic spatial extent (au):  <R**2>=           2087.2496
 Charge=              0.0000 electrons
 Dipole moment (field-independent basis, Debye):
    X=              2.5078    Y=             -0.4619    Z=              0.0000  Tot=              2.5500
 Quadrupole moment (field-independent basis, Debye-Ang):
   XX=            -41.2108   YY=            -61.7187   ZZ=            -55.2376
   XY=            -18.2050   XZ=              0.0009   YZ=              0.0005
 Traceless Quadrupole moment (field-independent basis, Debye-Ang):
   XX=             11.5115   YY=             -8.9963   ZZ=             -2.5152
   XY=            -18.2050   XZ=              0.0009   YZ=              0.0005
 Octapole moment (field-independent basis, Debye-Ang**2):
  XXX=             46.0346  YYY=             -1.4034  ZZZ=              0.0004  XYY=             10.6903
  XXY=             11.6057  XXZ=             -0.0008  XZZ=             -1.1641  YZZ=             -2.0590
  YYZ=             -0.0002  XYZ=             -0.0009
 Hexadecapole moment (field-independent basis, Debye-Ang**3):
 XXXX=          -2000.4792 YYYY=           -306.2173 ZZZZ=            -74.5748 XXXY=            -96.9919
 XXXZ=              0.0106 YYYX=            -53.5991 YYYZ=              0.0067 ZZZX=              0.0062
 ZZZY=              0.0062 XXYY=           -482.1570 XXZZ=           -397.3479 YYZZ=            -62.1133
 XXYZ=              0.0057 YYXZ=              0.0061 ZZXY=              2.7576
 N-N= 4.280000237997D+02 E-N=-1.920617496701D+03  KE= 4.527577812532D+02
 No NMR shielding tensors so no spin-rotation constants.
 Leave Link  601 at Wed Sep  3 14:21:00 2025, MaxMem=  8053063680 cpu:         1.3
 (Enter /nexus/posix0/bmm/home/sucerqdl/sw/g09/l9999.exe)
 1\1\GINC-SLURM-ORBIT-CPU1\FOpt\RBMK\6-31+G\C5H10N2O2\SUCERQDL\03-Sep-2
 025\0\\#P bmk/6-31+g opt(modredun,calcfc)\\Gaussian input prepared by 
 ASE\\0,1\C,-0.00279015,-0.0282171151,0.0000012351\H,-0.0318548524,1.06
 66335859,-0.0000915392\H,-0.4850166169,-0.4301194016,-0.8956757805\H,-
 0.4849934519,-0.429963552,0.8957611378\C,1.5070339626,-0.641018745,0.0
 000321248\O,1.5728029036,-1.8854234162,0.0001019291\N,2.715082594,0.08
 34262567,-0.0000109674\H,2.7417842597,1.0953643389,-0.0000717473\C,4.0
 442234033,-0.6451312724,0.0000194104\H,4.0636651267,-1.3016977586,-0.8
 817288739\H,4.0636590565,-1.3016304699,0.8818176332\C,5.3917913396,0.2
 274784933,-0.000017223\O,5.3403366352,1.4648354905,-0.0000872079\N,6.5
 962612474,-0.4951369596,0.0000277439\H,6.4975988342,-1.5030542088,0.00
 00897871\C,8.0829058301,-0.0304099944,-0.0000013238\H,8.5625209121,-0.
 4145598371,-0.904631597\H,8.0816031274,1.0630982668,-0.0000750754\H,8.
 5625194162,-0.4144360022,0.9046823216\\Version=ES64L-G09RevD.01\State=
 1-A\HF=-456.1243697\RMSD=1.853e-09\RMSF=9.348e-03\Dipole=1.0006126,-0.
 0726201,-0.0000027\Quadrupole=11.3212955,-9.4512867,-1.8700088,-11.551
 5515,0.0006432,0.0004104\PG=C01 [X(C5H10N2O2)]\\@


 HAPPINESS IS NOT HAVING WHAT YOU WANT --
 HAPPINESS IS WANTING WHAT YOU HAVE!

              -- FROM MRS. SEVERN'S DESK
 Job cpu time:       0 days  0 hours 11 minutes 42.6 seconds.
 File lengths (MBytes):  RWF=    132 Int=      0 D2E=      0 Chk=      3 Scr=      2
 Normal termination of Gaussian 09 at Wed Sep  3 14:21:00 2025.
