 Entering Gaussian System, Link 0=g09
 Input=G-stretched07.com
 Output=G-stretched07.log
 Initial command:
 /nexus/posix0/bmm/home/sucerqdl/sw/g09/l1.exe "/nexus/posix0/bmm/home/sucerqdl/sw/g09/g09_scratch/Gau-2876808.inp" -scrdir="/nexus/posix0/bmm/home/sucerqdl/sw/g09/g09_scratch/"
 Entering Link 1 = /nexus/posix0/bmm/home/sucerqdl/sw/g09/l1.exe PID=   2876810.
  
 Copyright (c) 1988,1990,1992,1993,1995,1998,2003,2009,2013,
            Gaussian, Inc.  All Rights Reserved.
  
 This is part of the Gaussian(R) 09 program.  It is based on
 the Gaussian(R) 03 system (copyright 2003, Gaussian, Inc.),
 the Gaussian(R) 98 system (copyright 1998, Gaussian, Inc.),
 the Gaussian(R) 94 system (copyright 1995, Gaussian, Inc.),
 the Gaussian 92(TM) system (copyright 1992, Gaussian, Inc.),
 the Gaussian 90(TM) system (copyright 1990, Gaussian, Inc.),
 the Gaussian 88(TM) system (copyright 1988, Gaussian, Inc.),
 the Gaussian 86(TM) system (copyright 1986, Carnegie Mellon
 University), and the Gaussian 82(TM) system (copyright 1983,
 Carnegie Mellon University). Gaussian is a federally registered
 trademark of Gaussian, Inc.
  
 This software contains proprietary and confidential information,
 including trade secrets, belonging to Gaussian, Inc.
  
 This software is provided under written license and may be
 used, copied, transmitted, or stored only in accord with that
 written license.
  
 The following legend is applicable only to US Government
 contracts under FAR:
  
                    RESTRICTED RIGHTS LEGEND
  
 Use, reproduction and disclosure by the US Government is
 subject to restrictions as set forth in subparagraphs (a)
 and (c) of the Commercial Computer Software - Restricted
 Rights clause in FAR 52.227-19.
  
 Gaussian, Inc.
 340 Quinnipiac St., Bldg. 40, Wallingford CT 06492
  
  
 ---------------------------------------------------------------
 Warning -- This program may not be used in any manner that
 competes with the business of Gaussian, Inc. or will provide
 assistance to any competitor of Gaussian, Inc.  The licensee
 of this program is prohibited from giving any competitor of
 Gaussian, Inc. access to this program.  By using this program,
 the user acknowledges that Gaussian, Inc. is engaged in the
 business of creating and licensing software in the field of
 computational chemistry and represents and warrants to the
 licensee that it is not a competitor of Gaussian, Inc. and that
 it will not use this program in any manner prohibited above.
 ---------------------------------------------------------------
  

 Cite this work as:
 Gaussian 09, Revision D.01,
 M. J. Frisch, G. W. Trucks, H. B. Schlegel, G. E. Scuseria, 
 M. A. Robb, J. R. Cheeseman, G. Scalmani, V. Barone, B. Mennucci, 
 G. A. Petersson, H. Nakatsuji, M. Caricato, X. Li, H. P. Hratchian, 
 A. F. Izmaylov, J. Bloino, G. Zheng, J. L. Sonnenberg, M. Hada, 
 M. Ehara, K. Toyota, R. Fukuda, J. Hasegawa, M. Ishida, T. Nakajima, 
 Y. Honda, O. Kitao, H. Nakai, T. Vreven, J. A. Montgomery, Jr., 
 J. E. Peralta, F. Ogliaro, M. Bearpark, J. J. Heyd, E. Brothers, 
 K. N. Kudin, V. N. Staroverov, T. Keith, R. Kobayashi, J. Normand, 
 K. Raghavachari, A. Rendell, J. C. Burant, S. S. Iyengar, J. Tomasi, 
 M. Cossi, N. Rega, J. M. Millam, M. Klene, J. E. Knox, J. B. Cross, 
 V. Bakken, C. Adamo, J. Jaramillo, R. Gomperts, R. E. Stratmann, 
 O. Yazyev, A. J. Austin, R. Cammi, C. Pomelli, J. W. Ochterski, 
 R. L. Martin, K. Morokuma, V. G. Zakrzewski, G. A. Voth, 
 P. Salvador, J. J. Dannenberg, S. Dapprich, A. D. Daniels, 
 O. Farkas, J. B. Foresman, J. V. Ortiz, J. Cioslowski, 
 and D. J. Fox, Gaussian, Inc., Wallingford CT, 2013.
 
 ******************************************
 Gaussian 09:  ES64L-G09RevD.01 24-Apr-2013
                 3-Sep-2025 
 ******************************************
 %mem=60GB
 %NProcShared=16
 Will use up to   16 processors via shared memory.
 %chk=G-stretched07
 ----------------------------------
 #P bmk/6-31+g opt(modredun,calcfc)
 ----------------------------------
 1/10=4,14=-1,18=120,19=15,26=3,38=1/1,3;
 2/9=110,12=2,17=6,18=5,40=1/2;
 3/5=1,6=6,7=10,11=2,16=1,25=1,30=1,71=2,74=-34,140=1/1,2,3;
 4//1;
 5/5=2,38=5/2;
 8/6=4,10=90,11=11/1;
 11/6=1,8=1,9=11,15=111,16=1/1,2,10;
 10/6=1,13=1/2;
 6/7=2,8=2,9=2,10=2,28=1/1;
 7/10=1,18=20,25=1/1,2,3,16;
 1/10=4,14=-1,18=20,19=15,26=3/3(2);
 2/9=110/2;
 99//99;
 2/9=110/2;
 3/5=1,6=6,7=10,11=2,16=1,25=1,30=1,71=1,74=-34/1,2,3;
 4/5=5,16=3,69=1/1;
 5/5=2,38=5/2;
 7//1,2,3,16;
 1/14=-1,18=20,19=15,26=3/3(-5);
 2/9=110/2;
 6/7=2,8=2,9=2,10=2,19=2,28=1/1;
 99/9=1/99;
 Leave Link    1 at Wed Sep  3 14:22:46 2025, MaxMem=  8053063680 cpu:         1.3
 (Enter /nexus/posix0/bmm/home/sucerqdl/sw/g09/l101.exe)
 ------------------------------
 Gaussian input prepared by ASE
 ------------------------------
 Symbolic Z-matrix:
 Charge =  0 Multiplicity = 1
 C                     0.        0.        0. 
 H                    -0.10111   1.08912  -0.00008 
 H                    -0.42868  -0.45084  -0.90221 
 H                    -0.42866  -0.4507    0.90228 
 C                     1.67562  -0.54924   0.00003 
 O                     1.74882  -1.78932   0.00008 
 N                     2.94152   0.17946  -0.00001 
 H                     2.95516   1.1918   -0.00006 
 C                     4.35635  -0.53763   0.00003 
 H                     4.37339  -1.18842  -0.88431 
 H                     4.37339  -1.18831   0.88446 
 C                     5.80933   0.32628  -0.00002 
 O                     5.76349   1.56022  -0.00011 
 N                     7.06774  -0.40259   0.00003 
 H                     6.95507  -1.41043   0.0001 
 C                     8.6857    0.        0. 
 H                     9.12238  -0.42504  -0.91044 
 H                     8.7353    1.09095  -0.00004 
 H                     9.12239  -0.42497   0.91046 
 
 The following ModRedundant input section has been read:
 B       1      16 F                                                           
 
 NAtoms=     19 NQM=       19 NQMF=       0 NMMI=      0 NMMIF=      0
                NMic=       0 NMicF=      0.
                    Isotopes and Nuclear Properties:
 (Nuclear quadrupole moments (NQMom) in fm**2, nuclear magnetic moments (NMagM)
  in nuclear magnetons)

  Atom         1           2           3           4           5           6           7           8           9          10
 IAtWgt=          12           1           1           1          12          16          14           1          12           1
 AtmWgt=  12.0000000   1.0078250   1.0078250   1.0078250  12.0000000  15.9949146  14.0030740   1.0078250  12.0000000   1.0078250
 NucSpn=           0           1           1           1           0           0           2           1           0           1
 AtZEff=   0.0000000   0.0000000   0.0000000   0.0000000   0.0000000   0.0000000   0.0000000   0.0000000   0.0000000   0.0000000
 NQMom=    0.0000000   0.0000000   0.0000000   0.0000000   0.0000000   0.0000000   2.0440000   0.0000000   0.0000000   0.0000000
 NMagM=    0.0000000   2.7928460   2.7928460   2.7928460   0.0000000   0.0000000   0.4037610   2.7928460   0.0000000   2.7928460
 AtZNuc=   6.0000000   1.0000000   1.0000000   1.0000000   6.0000000   8.0000000   7.0000000   1.0000000   6.0000000   1.0000000

  Atom        11          12          13          14          15          16          17          18          19
 IAtWgt=           1          12          16          14           1          12           1           1           1
 AtmWgt=   1.0078250  12.0000000  15.9949146  14.0030740   1.0078250  12.0000000   1.0078250   1.0078250   1.0078250
 NucSpn=           1           0           0           2           1           0           1           1           1
 AtZEff=   0.0000000   0.0000000   0.0000000   0.0000000   0.0000000   0.0000000   0.0000000   0.0000000   0.0000000
 NQMom=    0.0000000   0.0000000   0.0000000   2.0440000   0.0000000   0.0000000   0.0000000   0.0000000   0.0000000
 NMagM=    2.7928460   0.0000000   0.0000000   0.4037610   2.7928460   0.0000000   2.7928460   2.7928460   2.7928460
 AtZNuc=   1.0000000   6.0000000   8.0000000   7.0000000   1.0000000   6.0000000   1.0000000   1.0000000   1.0000000
 Leave Link  101 at Wed Sep  3 14:22:46 2025, MaxMem=  8053063680 cpu:        11.9
 (Enter /nexus/posix0/bmm/home/sucerqdl/sw/g09/l103.exe)

 GradGradGradGradGradGradGradGradGradGradGradGradGradGradGradGradGradGrad
 Berny optimization.
 Initialization pass.
                           ----------------------------
                           !    Initial Parameters    !
                           ! (Angstroms and Degrees)  !
 --------------------------                            --------------------------
 ! Name  Definition              Value          Derivative Info.                !
 --------------------------------------------------------------------------------
 ! R1    R(1,2)                  1.0938         calculate D2E/DX2 analytically  !
 ! R2    R(1,3)                  1.0959         calculate D2E/DX2 analytically  !
 ! R3    R(1,4)                  1.0959         calculate D2E/DX2 analytically  !
 ! R4    R(1,5)                  1.7633         calculate D2E/DX2 analytically  !
 ! R5    R(1,16)                 8.6857         frozen, calculate D2E/DX2 analyt!
 ! R6    R(5,6)                  1.2422         calculate D2E/DX2 analytically  !
 ! R7    R(5,7)                  1.4607         calculate D2E/DX2 analytically  !
 ! R8    R(7,8)                  1.0124         calculate D2E/DX2 analytically  !
 ! R9    R(7,9)                  1.5862         calculate D2E/DX2 analytically  !
 ! R10   R(9,10)                 1.0981         calculate D2E/DX2 analytically  !
 ! R11   R(9,11)                 1.0981         calculate D2E/DX2 analytically  !
 ! R12   R(9,12)                 1.6904         calculate D2E/DX2 analytically  !
 ! R13   R(12,13)                1.2348         calculate D2E/DX2 analytically  !
 ! R14   R(12,14)                1.4543         calculate D2E/DX2 analytically  !
 ! R15   R(14,15)                1.0141         calculate D2E/DX2 analytically  !
 ! R16   R(14,16)                1.6673         calculate D2E/DX2 analytically  !
 ! R17   R(16,17)                1.0956         calculate D2E/DX2 analytically  !
 ! R18   R(16,18)                1.0921         calculate D2E/DX2 analytically  !
 ! R19   R(16,19)                1.0956         calculate D2E/DX2 analytically  !
 ! A1    A(2,1,3)              111.9259         calculate D2E/DX2 analytically  !
 ! A2    A(2,1,4)              111.9257         calculate D2E/DX2 analytically  !
 ! A3    A(2,1,5)              113.4523         calculate D2E/DX2 analytically  !
 ! A4    A(3,1,4)              110.8311         calculate D2E/DX2 analytically  !
 ! A5    A(3,1,5)              104.0978         calculate D2E/DX2 analytically  !
 ! A6    A(4,1,5)              104.0981         calculate D2E/DX2 analytically  !
 ! A7    A(1,5,6)              111.5263         calculate D2E/DX2 analytically  !
 ! A8    A(1,5,7)              131.9258         calculate D2E/DX2 analytically  !
 ! A9    A(6,5,7)              116.548          calculate D2E/DX2 analytically  !
 ! A10   A(5,7,8)              120.698          calculate D2E/DX2 analytically  !
 ! A11   A(5,7,9)              123.1962         calculate D2E/DX2 analytically  !
 ! A12   A(8,7,9)              116.1058         calculate D2E/DX2 analytically  !
 ! A13   A(7,9,10)             106.3642         calculate D2E/DX2 analytically  !
 ! A14   A(7,9,11)             106.3643         calculate D2E/DX2 analytically  !
 ! A15   A(7,9,12)             122.3874         calculate D2E/DX2 analytically  !
 ! A16   A(10,9,11)            107.2892         calculate D2E/DX2 analytically  !
 ! A17   A(10,9,12)            106.8289         calculate D2E/DX2 analytically  !
 ! A18   A(11,9,12)            106.8289         calculate D2E/DX2 analytically  !
 ! A19   A(9,12,13)            118.6073         calculate D2E/DX2 analytically  !
 ! A20   A(9,12,14)            119.1855         calculate D2E/DX2 analytically  !
 ! A21   A(13,12,14)           122.2072         calculate D2E/DX2 analytically  !
 ! A22   A(12,14,15)           113.7012         calculate D2E/DX2 analytically  !
 ! A23   A(12,14,16)           135.9473         calculate D2E/DX2 analytically  !
 ! A24   A(15,14,16)           110.3515         calculate D2E/DX2 analytically  !
 ! A25   A(14,16,17)           107.0455         calculate D2E/DX2 analytically  !
 ! A26   A(14,16,18)           106.5766         calculate D2E/DX2 analytically  !
 ! A27   A(14,16,19)           107.0452         calculate D2E/DX2 analytically  !
 ! A28   A(17,16,18)           111.6804         calculate D2E/DX2 analytically  !
 ! A29   A(17,16,19)           112.4113         calculate D2E/DX2 analytically  !
 ! A30   A(18,16,19)           111.6804         calculate D2E/DX2 analytically  !
 ! D1    D(2,1,5,6)           -179.9983         calculate D2E/DX2 analytically  !
 ! D2    D(2,1,5,7)              0.0019         calculate D2E/DX2 analytically  !
 ! D3    D(3,1,5,6)            -58.0859         calculate D2E/DX2 analytically  !
 ! D4    D(3,1,5,7)            121.9143         calculate D2E/DX2 analytically  !
 ! D5    D(4,1,5,6)             58.0893         calculate D2E/DX2 analytically  !
 ! D6    D(4,1,5,7)           -121.9105         calculate D2E/DX2 analytically  !
 ! D7    D(1,5,7,8)             -0.0007         calculate D2E/DX2 analytically  !
 ! D8    D(1,5,7,9)            179.9996         calculate D2E/DX2 analytically  !
 ! D9    D(6,5,7,8)            179.9995         calculate D2E/DX2 analytically  !
 ! D10   D(6,5,7,9)             -0.0002         calculate D2E/DX2 analytically  !
 ! D11   D(5,7,9,10)            57.0716         calculate D2E/DX2 analytically  !
 ! D12   D(5,7,9,11)           -57.0732         calculate D2E/DX2 analytically  !
 ! D13   D(5,7,9,12)           179.9992         calculate D2E/DX2 analytically  !
 ! D14   D(8,7,9,10)          -122.9281         calculate D2E/DX2 analytically  !
 ! D15   D(8,7,9,11)           122.9271         calculate D2E/DX2 analytically  !
 ! D16   D(8,7,9,12)            -0.0005         calculate D2E/DX2 analytically  !
 ! D17   D(7,9,12,13)           -0.0005         calculate D2E/DX2 analytically  !
 ! D18   D(7,9,12,14)          179.9995         calculate D2E/DX2 analytically  !
 ! D19   D(10,9,12,13)         122.7125         calculate D2E/DX2 analytically  !
 ! D20   D(10,9,12,14)         -57.2876         calculate D2E/DX2 analytically  !
 ! D21   D(11,9,12,13)        -122.7133         calculate D2E/DX2 analytically  !
 ! D22   D(11,9,12,14)          57.2866         calculate D2E/DX2 analytically  !
 ! D23   D(9,12,14,15)          -0.0001         calculate D2E/DX2 analytically  !
 ! D24   D(9,12,14,16)         179.9998         calculate D2E/DX2 analytically  !
 ! D25   D(13,12,14,15)        179.9999         calculate D2E/DX2 analytically  !
 ! D26   D(13,12,14,16)         -0.0002         calculate D2E/DX2 analytically  !
 ! D27   D(12,14,16,17)       -119.6295         calculate D2E/DX2 analytically  !
 ! D28   D(12,14,16,18)          0.0023         calculate D2E/DX2 analytically  !
 ! D29   D(12,14,16,19)        119.6338         calculate D2E/DX2 analytically  !
 ! D30   D(15,14,16,17)         60.3704         calculate D2E/DX2 analytically  !
 ! D31   D(15,14,16,18)       -179.9978         calculate D2E/DX2 analytically  !
 ! D32   D(15,14,16,19)        -60.3662         calculate D2E/DX2 analytically  !
 --------------------------------------------------------------------------------
 Trust Radius=3.00D-01 FncErr=1.00D-07 GrdErr=1.00D-06
 Number of steps in this run=     91 maximum allowed number of steps=    114.
 GradGradGradGradGradGradGradGradGradGradGradGradGradGradGradGradGradGrad

 Leave Link  103 at Wed Sep  3 14:22:47 2025, MaxMem=  8053063680 cpu:         0.3
 (Enter /nexus/posix0/bmm/home/sucerqdl/sw/g09/l202.exe)
                          Input orientation:                          
 ---------------------------------------------------------------------
 Center     Atomic      Atomic             Coordinates (Angstroms)
 Number     Number       Type             X           Y           Z
 ---------------------------------------------------------------------
      1          6           0        0.000000    0.000000    0.000000
      2          1           0       -0.101114    1.089125   -0.000082
      3          1           0       -0.428677   -0.450844   -0.902208
      4          1           0       -0.428662   -0.450704    0.902284
      5          6           0        1.675619   -0.549236    0.000025
      6          8           0        1.748819   -1.789321    0.000085
      7          7           0        2.941524    0.179459   -0.000008
      8          1           0        2.955163    1.191803   -0.000064
      9          6           0        4.356348   -0.537630    0.000033
     10          1           0        4.373385   -1.188424   -0.884308
     11          1           0        4.373391   -1.188313    0.884458
     12          6           0        5.809328    0.326282   -0.000024
     13          8           0        5.763487    1.560217   -0.000110
     14          7           0        7.067736   -0.402595    0.000029
     15          1           0        6.955073   -1.410427    0.000101
     16          6           0        8.685696    0.000000    0.000000
     17          1           0        9.122376   -0.425037   -0.910437
     18          1           0        8.735305    1.090951   -0.000038
     19          1           0        9.122386   -0.424974    0.910462
 ---------------------------------------------------------------------
                    Distance matrix (angstroms):
                    1          2          3          4          5
     1  C    0.000000
     2  H    1.093808   0.000000
     3  H    1.095903   1.814561   0.000000
     4  H    1.095902   1.814559   1.804492   0.000000
     5  C    1.763338   2.416817   2.291674   2.291676   0.000000
     6  O    2.502006   3.421651   2.710561   2.710587   1.242244
     7  N    2.946993   3.175710   3.545349   3.545334   1.460654
     8  H    3.186438   3.058002   3.868143   3.868118   2.160659
     9  C    4.389398   4.745029   4.870117   4.870106   2.680754
    10  H    4.617450   5.098061   4.858410   5.176466   2.910077
    11  H    4.617456   5.098071   5.176475   4.858405   2.910088
    12  C    5.818483   5.959467   6.350635   6.350621   4.225408
    13  O    5.970934   5.883492   6.572750   6.572734   4.600049
    14  N    7.079193   7.322406   7.550666   7.550653   5.394110
    15  H    7.096643   7.485822   7.500315   7.500303   5.349232
    16  C    8.685696   8.854052   9.170008   9.169994   7.031561
    17  H    9.177543   9.391176   9.551091   9.721571   7.503236
    18  H    8.803165   8.836419   9.336466   9.336443   7.247715
    19  H    9.177553   9.391195   9.721587   9.551087   7.503244
                    6          7          8          9         10
     6  O    0.000000
     7  N    2.301878   0.000000
     8  H    3.215955   1.012435   0.000000
     9  C    2.892394   1.586173   2.225816   0.000000
    10  H    2.834004   2.168713   2.908388   1.098127   0.000000
    11  H    2.834026   2.168715   2.908384   1.098128   1.768766
    12  C    4.578592   2.871560   2.982512   1.690412   2.266764
    13  O    5.228476   3.141650   2.832386   2.526064   3.204561
    14  N    5.496716   4.167063   4.410822   2.714748   2.942636
    15  H    5.220023   4.316980   4.771884   2.741376   2.737987
    16  C    7.163934   5.746975   5.853153   4.362603   4.559647
    17  H    7.553785   6.276721   6.440299   4.853519   4.810026
    18  H    7.556914   5.865042   5.781021   4.671995   5.000383
    19  H    7.553789   6.276731   6.440315   4.853523   5.133913
                   11         12         13         14         15
    11  H    0.000000
    12  C    2.266764   0.000000
    13  O    3.204566   1.234786   0.000000
    14  N    2.942629   1.454253   2.356627   0.000000
    15  H    2.737975   2.080599   3.200719   1.014110   0.000000
    16  C    4.559642   2.894816   3.312640   1.667297   2.232569
    17  H    5.133916   3.517047   4.006502   2.247442   2.548976
    18  H    5.000367   3.024246   3.008639   2.238630   3.070199
    19  H    4.810023   3.517062   4.006535   2.247438   2.548946
                   16         17         18         19
    16  C    0.000000
    17  H    1.095555   0.000000
    18  H    1.092079   1.810213   0.000000
    19  H    1.095555   1.820899   1.810213   0.000000
 Stoichiometry    C5H10N2O2
 Framework group  C1[X(C5H10N2O2)]
 Deg. of freedom    51
 Full point group                 C1      NOp   1
 Largest Abelian subgroup         C1      NOp   1
 Largest concise Abelian subgroup C1      NOp   1
                         Standard orientation:                         
 ---------------------------------------------------------------------
 Center     Atomic      Atomic             Coordinates (Angstroms)
 Number     Number       Type             X           Y           Z
 ---------------------------------------------------------------------
      1          6           0       -4.220912    0.573198   -0.000005
      2          1           0       -4.211685    1.666967   -0.000087
      3          1           0       -4.692867    0.167879   -0.902212
      4          1           0       -4.692838    0.168017    0.902280
      5          6           0       -2.609218   -0.142205    0.000020
      6          8           0       -2.661440   -1.383351    0.000080
      7          7           0       -1.276285    0.455123   -0.000012
      8          1           0       -1.160632    1.460931   -0.000068
      9          6           0        0.059017   -0.400980    0.000029
     10          1           0        0.010342   -1.050175   -0.884312
     11          1           0        0.010359   -1.050065    0.884454
     12          6           0        1.591706    0.312011   -0.000029
     13          8           0        1.670528    1.544279   -0.000115
     14          7           0        2.770201   -0.540046    0.000024
     15          1           0        2.556483   -1.531381    0.000096
     16          6           0        4.420512   -0.302657   -0.000005
     17          1           0        4.812105   -0.769561   -0.910442
     18          1           0        4.579877    0.777731   -0.000043
     19          1           0        4.812122   -0.769500    0.910457
 ---------------------------------------------------------------------
 Rotational constants (GHZ):      5.0517723      0.5095211      0.4670206
 Leave Link  202 at Wed Sep  3 14:22:47 2025, MaxMem=  8053063680 cpu:         0.2
 (Enter /nexus/posix0/bmm/home/sucerqdl/sw/g09/l301.exe)
 Standard basis: 6-31+G (6D, 7F)
 Ernie: Thresh=  0.10000D-02 Tol=  0.10000D-05 Strict=F.
 There are   137 symmetry adapted cartesian basis functions of A   symmetry.
 There are   137 symmetry adapted basis functions of A   symmetry.
   137 basis functions,   274 primitive gaussians,   137 cartesian basis functions
    35 alpha electrons       35 beta electrons
       nuclear repulsion energy       411.2906626872 Hartrees.
 IExCor= 3226 DFT=T Ex+Corr=BMK ExCW=0 ScaHFX=  0.420000
 ScaDFX=  1.000000  1.000000  1.000000  1.000000 ScalE2=  1.000000  1.000000
 IRadAn=      0 IRanWt=     -1 IRanGd=            0 ICorTp=0 IEmpDi=  4
 NAtoms=   19 NActive=   19 NUniq=   19 SFac= 1.00D+00 NAtFMM=   60 NAOKFM=F Big=F
 Integral buffers will be    131072 words long.
 Raffenetti 2 integral format.
 Two-electron integral symmetry is turned on.
 Leave Link  301 at Wed Sep  3 14:22:47 2025, MaxMem=  8053063680 cpu:         1.1
 (Enter /nexus/posix0/bmm/home/sucerqdl/sw/g09/l302.exe)
 NPDir=0 NMtPBC=     1 NCelOv=     1 NCel=       1 NClECP=     1 NCelD=      1
         NCelK=      1 NCelE2=     1 NClLst=     1 CellRange=     0.0.
 One-electron integrals computed using PRISM.
 NBasis=   137 RedAO= T EigKep=  4.06D-05  NBF=   137
 NBsUse=   137 1.00D-06 EigRej= -1.00D+00 NBFU=   137
 Precomputing XC quadrature grid using
 IXCGrd= 4 IRadAn=           0 IRanWt=          -1 IRanGd=           0 AccXCQ= 0.00D+00.
 Generated NRdTot=       0 NPtTot=           0 NUsed=           0 NTot=          32
 NSgBfM=   136   136   136   136   136 MxSgAt=    19 MxSgA2=    19.
 Leave Link  302 at Wed Sep  3 14:22:47 2025, MaxMem=  8053063680 cpu:         2.8
 (Enter /nexus/posix0/bmm/home/sucerqdl/sw/g09/l303.exe)
 DipDrv:  MaxL=1.
 Leave Link  303 at Wed Sep  3 14:22:47 2025, MaxMem=  8053063680 cpu:         0.7
 (Enter /nexus/posix0/bmm/home/sucerqdl/sw/g09/l401.exe)
 ExpMin= 4.38D-02 ExpMax= 5.48D+03 ExpMxC= 8.25D+02 IAcc=2 IRadAn=         4 AccDes= 0.00D+00
 Harris functional with IExCor= 1009 and IRadAn=       4 diagonalized for initial guess.
 HarFok:  IExCor= 1009 AccDes= 0.00D+00 IRadAn=         4 IDoV= 1 UseB2=F ITyADJ=14
 ICtDFT=  3500011 ScaDFX=  1.000000  1.000000  1.000000  1.000000
 FoFCou: FMM=F IPFlag=           0 FMFlag=      100000 FMFlg1=           0
         NFxFlg=           0 DoJE=T BraDBF=F KetDBF=T FulRan=T
         wScrn=  0.000000 ICntrl=     500 IOpCl=  0 I1Cent=   200000004 NGrid=           0
         NMat0=    1 NMatS0=      1 NMatT0=    0 NMatD0=    1 NMtDS0=    0 NMtDT0=    0
 Petite list used in FoFCou.
 Harris En= -455.904418933508    
 JPrj=0 DoOrth=F DoCkMO=F.
 Leave Link  401 at Wed Sep  3 14:22:48 2025, MaxMem=  8053063680 cpu:         4.1
 (Enter /nexus/posix0/bmm/home/sucerqdl/sw/g09/l502.exe)
 Closed shell SCF:
 Using DIIS extrapolation, IDIIS=  1040.
 Integral symmetry usage will be decided dynamically.
 Keep R1 ints in memory in canonical form, NReq=46076400.
 IVT=       78102 IEndB=       78102 NGot=  8053063680 MDV=  8008301248
 LenX=  8008301248 LenY=  8008282038
 Requested convergence on RMS density matrix=1.00D-08 within 128 cycles.
 Requested convergence on MAX density matrix=1.00D-06.
 Requested convergence on             energy=1.00D-06.
 No special actions if energy rises.
 FoFCou: FMM=F IPFlag=           0 FMFlag=           0 FMFlg1=           0
         NFxFlg=           0 DoJE=F BraDBF=F KetDBF=F FulRan=T
         wScrn=  0.000000 ICntrl=     600 IOpCl=  0 I1Cent=           0 NGrid=           0
         NMat0=    1 NMatS0=   9453 NMatT0=    0 NMatD0=    1 NMtDS0=    0 NMtDT0=    0
 Symmetry not used in FoFCou.

 Cycle   1  Pass 1  IDiag  1:
 E= -455.810273761954    
 DIIS: error= 3.84D-02 at cycle   1 NSaved=   1.
 NSaved= 1 IEnMin= 1 EnMin= -455.810273761954     IErMin= 1 ErrMin= 3.84D-02
 ErrMax= 3.84D-02  0.00D+00 EMaxC= 1.00D-01 BMatC= 2.72D-01 BMatP= 2.72D-01
 IDIUse=3 WtCom= 6.16D-01 WtEn= 3.84D-01
 Coeff-Com:  0.100D+01
 Coeff-En:   0.100D+01
 Coeff:      0.100D+01
 Gap=     0.325 Goal=   None    Shift=    0.000
 GapD=    0.325 DampG=1.000 DampE=0.500 DampFc=0.5000 IDamp=-1.
 Damping current iteration by 5.00D-01
 RMSDP=2.44D-02 MaxDP=1.14D+00              OVMax= 2.88D-01

 Cycle   2  Pass 1  IDiag  1:
 E= -455.859910132291     Delta-E=       -0.049636370337 Rises=F Damp=T
 DIIS: error= 2.14D-02 at cycle   2 NSaved=   2.
 NSaved= 2 IEnMin= 2 EnMin= -455.859910132291     IErMin= 2 ErrMin= 2.14D-02
 ErrMax= 2.14D-02  0.00D+00 EMaxC= 1.00D-01 BMatC= 5.14D-02 BMatP= 2.72D-01
 IDIUse=3 WtCom= 7.86D-01 WtEn= 2.14D-01
 Coeff-Com:  0.264D+00 0.736D+00
 Coeff-En:   0.396D+00 0.604D+00
 Coeff:      0.292D+00 0.708D+00
 Gap=     0.321 Goal=   None    Shift=    0.000
 RMSDP=1.05D-02 MaxDP=6.10D-01 DE=-4.96D-02 OVMax= 1.56D-01

 Cycle   3  Pass 1  IDiag  1:
 E= -456.035655195167     Delta-E=       -0.175745062877 Rises=F Damp=F
 DIIS: error= 1.24D-02 at cycle   3 NSaved=   3.
 NSaved= 3 IEnMin= 3 EnMin= -456.035655195167     IErMin= 3 ErrMin= 1.24D-02
 ErrMax= 1.24D-02  0.00D+00 EMaxC= 1.00D-01 BMatC= 1.58D-02 BMatP= 5.14D-02
 IDIUse=3 WtCom= 8.76D-01 WtEn= 1.24D-01
 Coeff-Com:  0.108D+00 0.362D+00 0.530D+00
 Coeff-En:   0.000D+00 0.000D+00 0.100D+01
 Coeff:      0.943D-01 0.317D+00 0.588D+00
 Gap=     0.318 Goal=   None    Shift=    0.000
 RMSDP=1.45D-03 MaxDP=2.57D-02 DE=-1.76D-01 OVMax= 4.20D-02

 Cycle   4  Pass 1  IDiag  1:
 E= -456.048915893428     Delta-E=       -0.013260698261 Rises=F Damp=F
 DIIS: error= 4.44D-03 at cycle   4 NSaved=   4.
 NSaved= 4 IEnMin= 4 EnMin= -456.048915893428     IErMin= 4 ErrMin= 4.44D-03
 ErrMax= 4.44D-03  0.00D+00 EMaxC= 1.00D-01 BMatC= 2.41D-03 BMatP= 1.58D-02
 IDIUse=3 WtCom= 9.56D-01 WtEn= 4.44D-02
 Coeff-Com:  0.224D-01 0.434D-01 0.285D+00 0.650D+00
 Coeff-En:   0.000D+00 0.000D+00 0.735D-01 0.926D+00
 Coeff:      0.215D-01 0.415D-01 0.275D+00 0.662D+00
 Gap=     0.316 Goal=   None    Shift=    0.000
 RMSDP=5.86D-04 MaxDP=1.86D-02 DE=-1.33D-02 OVMax= 1.22D-02

 Cycle   5  Pass 1  IDiag  1:
 E= -456.050805612212     Delta-E=       -0.001889718784 Rises=F Damp=F
 DIIS: error= 1.21D-03 at cycle   5 NSaved=   5.
 NSaved= 5 IEnMin= 5 EnMin= -456.050805612212     IErMin= 5 ErrMin= 1.21D-03
 ErrMax= 1.21D-03  0.00D+00 EMaxC= 1.00D-01 BMatC= 1.92D-04 BMatP= 2.41D-03
 IDIUse=3 WtCom= 9.88D-01 WtEn= 1.21D-02
 Coeff-Com:  0.349D-02-0.146D-01 0.903D-01 0.335D+00 0.586D+00
 Coeff-En:   0.000D+00 0.000D+00 0.000D+00 0.000D+00 0.100D+01
 Coeff:      0.345D-02-0.145D-01 0.892D-01 0.331D+00 0.591D+00
 Gap=     0.313 Goal=   None    Shift=    0.000
 RMSDP=2.33D-04 MaxDP=1.25D-02 DE=-1.89D-03 OVMax= 3.93D-03

 Cycle   6  Pass 1  IDiag  1:
 E= -456.050985868127     Delta-E=       -0.000180255915 Rises=F Damp=F
 DIIS: error= 2.70D-04 at cycle   6 NSaved=   6.
 NSaved= 6 IEnMin= 6 EnMin= -456.050985868127     IErMin= 6 ErrMin= 2.70D-04
 ErrMax= 2.70D-04  0.00D+00 EMaxC= 1.00D-01 BMatC= 1.19D-05 BMatP= 1.92D-04
 IDIUse=3 WtCom= 9.97D-01 WtEn= 2.70D-03
 Coeff-Com:  0.175D-02-0.100D-01 0.275D-01 0.104D+00 0.257D+00 0.620D+00
 Coeff-En:   0.000D+00 0.000D+00 0.000D+00 0.000D+00 0.000D+00 0.100D+01
 Coeff:      0.174D-02-0.100D-01 0.275D-01 0.104D+00 0.257D+00 0.621D+00
 Gap=     0.313 Goal=   None    Shift=    0.000
 RMSDP=7.66D-05 MaxDP=3.84D-03 DE=-1.80D-04 OVMax= 5.88D-04

 Cycle   7  Pass 1  IDiag  1:
 E= -456.050996009855     Delta-E=       -0.000010141728 Rises=F Damp=F
 DIIS: error= 1.10D-04 at cycle   7 NSaved=   7.
 NSaved= 7 IEnMin= 7 EnMin= -456.050996009855     IErMin= 7 ErrMin= 1.10D-04
 ErrMax= 1.10D-04  0.00D+00 EMaxC= 1.00D-01 BMatC= 1.50D-06 BMatP= 1.19D-05
 IDIUse=3 WtCom= 9.99D-01 WtEn= 1.10D-03
 Coeff-Com:  0.769D-03-0.203D-02-0.446D-02-0.251D-01-0.445D-02 0.212D+00
 Coeff-Com:  0.823D+00
 Coeff-En:   0.000D+00 0.000D+00 0.000D+00 0.000D+00 0.000D+00 0.000D+00
 Coeff-En:   0.100D+01
 Coeff:      0.768D-03-0.203D-02-0.446D-02-0.251D-01-0.444D-02 0.212D+00
 Coeff:      0.823D+00
 Gap=     0.313 Goal=   None    Shift=    0.000
 RMSDP=3.26D-05 MaxDP=1.06D-03 DE=-1.01D-05 OVMax= 4.68D-04

 Cycle   8  Pass 1  IDiag  1:
 E= -456.050997319126     Delta-E=       -0.000001309271 Rises=F Damp=F
 DIIS: error= 5.86D-05 at cycle   8 NSaved=   8.
 NSaved= 8 IEnMin= 8 EnMin= -456.050997319126     IErMin= 8 ErrMin= 5.86D-05
 ErrMax= 5.86D-05  0.00D+00 EMaxC= 1.00D-01 BMatC= 2.57D-07 BMatP= 1.50D-06
 IDIUse=1 WtCom= 1.00D+00 WtEn= 0.00D+00
 Coeff-Com:  0.355D-03-0.487D-03-0.471D-02-0.236D-01-0.235D-01 0.670D-01
 Coeff-Com:  0.492D+00 0.493D+00
 Coeff:      0.355D-03-0.487D-03-0.471D-02-0.236D-01-0.235D-01 0.670D-01
 Coeff:      0.492D+00 0.493D+00
 Gap=     0.313 Goal=   None    Shift=    0.000
 RMSDP=1.35D-05 MaxDP=5.66D-04 DE=-1.31D-06 OVMax= 1.87D-04

 Cycle   9  Pass 1  IDiag  1:
 E= -456.050997518400     Delta-E=       -0.000000199274 Rises=F Damp=F
 DIIS: error= 1.72D-05 at cycle   9 NSaved=   9.
 NSaved= 9 IEnMin= 9 EnMin= -456.050997518400     IErMin= 9 ErrMin= 1.72D-05
 ErrMax= 1.72D-05  0.00D+00 EMaxC= 1.00D-01 BMatC= 2.62D-08 BMatP= 2.57D-07
 IDIUse=1 WtCom= 1.00D+00 WtEn= 0.00D+00
 Coeff-Com: -0.256D-04 0.239D-03-0.674D-03-0.362D-02-0.855D-02-0.319D-01
 Coeff-Com:  0.143D-01 0.251D+00 0.779D+00
 Coeff:     -0.256D-04 0.239D-03-0.674D-03-0.362D-02-0.855D-02-0.319D-01
 Coeff:      0.143D-01 0.251D+00 0.779D+00
 Gap=     0.313 Goal=   None    Shift=    0.000
 RMSDP=2.81D-06 MaxDP=5.56D-05 DE=-1.99D-07 OVMax= 7.37D-05

 Cycle  10  Pass 1  IDiag  1:
 E= -456.050997545044     Delta-E=       -0.000000026644 Rises=F Damp=F
 DIIS: error= 3.13D-06 at cycle  10 NSaved=  10.
 NSaved=10 IEnMin=10 EnMin= -456.050997545044     IErMin=10 ErrMin= 3.13D-06
 ErrMax= 3.13D-06  0.00D+00 EMaxC= 1.00D-01 BMatC= 1.12D-09 BMatP= 2.62D-08
 IDIUse=1 WtCom= 1.00D+00 WtEn= 0.00D+00
 Coeff-Com: -0.267D-04 0.127D-03-0.716D-04-0.569D-03-0.262D-02-0.166D-01
 Coeff-Com: -0.128D-01 0.802D-01 0.335D+00 0.618D+00
 Coeff:     -0.267D-04 0.127D-03-0.716D-04-0.569D-03-0.262D-02-0.166D-01
 Coeff:     -0.128D-01 0.802D-01 0.335D+00 0.618D+00
 Gap=     0.313 Goal=   None    Shift=    0.000
 RMSDP=7.16D-07 MaxDP=1.78D-05 DE=-2.66D-08 OVMax= 9.07D-06

 Cycle  11  Pass 1  IDiag  1:
 E= -456.050997546181     Delta-E=       -0.000000001136 Rises=F Damp=F
 DIIS: error= 9.98D-07 at cycle  11 NSaved=  11.
 NSaved=11 IEnMin=11 EnMin= -456.050997546181     IErMin=11 ErrMin= 9.98D-07
 ErrMax= 9.98D-07  0.00D+00 EMaxC= 1.00D-01 BMatC= 1.16D-10 BMatP= 1.12D-09
 IDIUse=1 WtCom= 1.00D+00 WtEn= 0.00D+00
 Coeff-Com: -0.826D-05 0.189D-04 0.735D-04 0.278D-03 0.218D-03-0.191D-02
 Coeff-Com: -0.690D-02-0.750D-02 0.197D-01 0.249D+00 0.747D+00
 Coeff:     -0.826D-05 0.189D-04 0.735D-04 0.278D-03 0.218D-03-0.191D-02
 Coeff:     -0.690D-02-0.750D-02 0.197D-01 0.249D+00 0.747D+00
 Gap=     0.313 Goal=   None    Shift=    0.000
 RMSDP=2.22D-07 MaxDP=8.37D-06 DE=-1.14D-09 OVMax= 4.99D-06

 Cycle  12  Pass 1  IDiag  1:
 E= -456.050997546310     Delta-E=       -0.000000000129 Rises=F Damp=F
 DIIS: error= 2.64D-07 at cycle  12 NSaved=  12.
 NSaved=12 IEnMin=12 EnMin= -456.050997546310     IErMin=12 ErrMin= 2.64D-07
 ErrMax= 2.64D-07  0.00D+00 EMaxC= 1.00D-01 BMatC= 1.51D-11 BMatP= 1.16D-10
 IDIUse=1 WtCom= 1.00D+00 WtEn= 0.00D+00
 Coeff-Com: -0.240D-05 0.219D-05 0.394D-04 0.156D-03 0.262D-03 0.179D-03
 Coeff-Com: -0.263D-02-0.844D-02-0.135D-01 0.814D-01 0.365D+00 0.578D+00
 Coeff:     -0.240D-05 0.219D-05 0.394D-04 0.156D-03 0.262D-03 0.179D-03
 Coeff:     -0.263D-02-0.844D-02-0.135D-01 0.814D-01 0.365D+00 0.578D+00
 Gap=     0.313 Goal=   None    Shift=    0.000
 RMSDP=5.23D-08 MaxDP=1.77D-06 DE=-1.29D-10 OVMax= 7.13D-07

 Cycle  13  Pass 1  IDiag  1:
 E= -456.050997546321     Delta-E=       -0.000000000011 Rises=F Damp=F
 DIIS: error= 6.01D-08 at cycle  13 NSaved=  13.
 NSaved=13 IEnMin=13 EnMin= -456.050997546321     IErMin=13 ErrMin= 6.01D-08
 ErrMax= 6.01D-08  0.00D+00 EMaxC= 1.00D-01 BMatC= 8.89D-13 BMatP= 1.51D-11
 IDIUse=1 WtCom= 1.00D+00 WtEn= 0.00D+00
 Coeff-Com:  0.173D-06-0.144D-05 0.673D-05 0.216D-04 0.747D-04 0.319D-03
 Coeff-Com: -0.199D-03-0.179D-02-0.763D-02-0.312D-02 0.345D-01 0.203D+00
 Coeff-Com:  0.775D+00
 Coeff:      0.173D-06-0.144D-05 0.673D-05 0.216D-04 0.747D-04 0.319D-03
 Coeff:     -0.199D-03-0.179D-02-0.763D-02-0.312D-02 0.345D-01 0.203D+00
 Coeff:      0.775D+00
 Gap=     0.313 Goal=   None    Shift=    0.000
 RMSDP=2.84D-08 MaxDP=1.06D-06 DE=-1.07D-11 OVMax= 2.36D-07

 Cycle  14  Pass 1  IDiag  1:
 E= -456.050997546320     Delta-E=        0.000000000000 Rises=F Damp=F
 DIIS: error= 1.28D-08 at cycle  14 NSaved=  14.
 NSaved=14 IEnMin=13 EnMin= -456.050997546321     IErMin=14 ErrMin= 1.28D-08
 ErrMax= 1.28D-08  0.00D+00 EMaxC= 1.00D-01 BMatC= 2.69D-14 BMatP= 8.89D-13
 IDIUse=1 WtCom= 1.00D+00 WtEn= 0.00D+00
 Coeff-Com:  0.128D-06-0.384D-06 0.878D-07-0.186D-05 0.712D-05 0.654D-04
 Coeff-Com:  0.577D-04-0.127D-03-0.107D-02-0.408D-02-0.705D-02 0.220D-01
 Coeff-Com:  0.181D+00 0.809D+00
 Coeff:      0.128D-06-0.384D-06 0.878D-07-0.186D-05 0.712D-05 0.654D-04
 Coeff:      0.577D-04-0.127D-03-0.107D-02-0.408D-02-0.705D-02 0.220D-01
 Coeff:      0.181D+00 0.809D+00
 Gap=     0.313 Goal=   None    Shift=    0.000
 RMSDP=3.48D-09 MaxDP=7.02D-08 DE= 2.27D-13 OVMax= 5.86D-08

 SCF Done:  E(RBMK) =  -456.050997546     A.U. after   14 cycles
            NFock= 14  Conv=0.35D-08     -V/T= 2.0087
 KE= 4.521218643984D+02 PE=-1.886808255671D+03 EE= 5.673447310395D+02
 Leave Link  502 at Wed Sep  3 14:22:54 2025, MaxMem=  8053063680 cpu:        86.8
 (Enter /nexus/posix0/bmm/home/sucerqdl/sw/g09/l801.exe)
 DoSCS=F DFT=T ScalE2(SS,OS)=  1.000000  1.000000
 Range of M.O.s used for correlation:     1   137
 NBasis=   137 NAE=    35 NBE=    35 NFC=     0 NFV=     0
 NROrb=    137 NOA=    35 NOB=    35 NVA=   102 NVB=   102

 **** Warning!!: The largest alpha MO coefficient is  0.57013370D+02

 Leave Link  801 at Wed Sep  3 14:22:54 2025, MaxMem=  8053063680 cpu:         0.3
 (Enter /nexus/posix0/bmm/home/sucerqdl/sw/g09/l1101.exe)
 Using compressed storage, NAtomX=    19.
 Will process     20 centers per pass.
 Leave Link 1101 at Wed Sep  3 14:22:54 2025, MaxMem=  8053063680 cpu:         1.6
 (Enter /nexus/posix0/bmm/home/sucerqdl/sw/g09/l1102.exe)
 Symmetrizing basis deriv contribution to polar:
 IMax=3 JMax=2 DiffMx= 0.00D+00
 Leave Link 1102 at Wed Sep  3 14:22:55 2025, MaxMem=  8053063680 cpu:         0.4
 (Enter /nexus/posix0/bmm/home/sucerqdl/sw/g09/l1110.exe)
 Forming Gx(P) for the SCF density, NAtomX=    19.
 Integral derivatives from FoFJK, PRISM(SPDF).
 Do as many integral derivatives as possible in FoFJK.
 G2DrvN: MDV=    8053063424.
 G2DrvN: will do    20 centers at a time, making    1 passes.
 Calling FoFCou, ICntrl=  3107 FMM=F I1Cent=   0 AccDes= 0.00D+00.
 FoFJK:  IHMeth= 1 ICntrl=    3107 DoSepK=F KAlg= 0 I1Cent=   0 FoldK=F
 IRaf=         0 NMat=   1 IRICut=       1 DoRegI=T DoRafI=F ISym2E= 0.
 FoFCou: FMM=F IPFlag=           0 FMFlag=      100000 FMFlg1=           0
         NFxFlg=           0 DoJE=F BraDBF=F KetDBF=F FulRan=T
         wScrn=  0.000000 ICntrl=    3107 IOpCl=  0 I1Cent=           0 NGrid=           0
         NMat0=    1 NMatS0=      1 NMatT0=    0 NMatD0=    1 NMtDS0=    0 NMtDT0=    0
 Symmetry not used in FoFCou.
 End of G2Drv F.D. properties file   721 does not exist.
 End of G2Drv F.D. properties file   722 does not exist.
 End of G2Drv F.D. properties file   788 does not exist.
 Leave Link 1110 at Wed Sep  3 14:23:03 2025, MaxMem=  8053063680 cpu:       132.6
 (Enter /nexus/posix0/bmm/home/sucerqdl/sw/g09/l1002.exe)
 Minotr:  Closed shell wavefunction.
          IDoAtm=1111111111111111111
          Direct CPHF calculation.
          Differentiating once with respect to nuclear coordinates.
          Requested convergence is 1.0D-08 RMS, and 1.0D-07 maximum.
          Secondary convergence is 1.0D-12 RMS, and 1.0D-12 maximum.
          NewPWx=T KeepS1=F KeepF1=F KeepIn=T MapXYZ=F SortEE=F KeepMc=T.
          MDV=    8053063349 using IRadAn=       2.
 Generate precomputed XC quadrature information.
 Keep R1 ints in memory in canonical form, NReq=46004215.
 FoFCou: FMM=F IPFlag=           0 FMFlag=           0 FMFlg1=           0
         NFxFlg=           0 DoJE=F BraDBF=F KetDBF=F FulRan=T
         wScrn=  0.000000 ICntrl=     600 IOpCl=  0 I1Cent=           0 NGrid=           0
         NMat0=    1 NMatS0=   9453 NMatT0=    0 NMatD0=    1 NMtDS0=    0 NMtDT0=    0
 Symmetry not used in FoFCou.
          Solving linear equations simultaneously, MaxMat=       0.
          There are    60 degrees of freedom in the 1st order CPHF.  IDoFFX=6 NUNeed=     0.
     54 vectors produced by pass  0 Test12= 5.95D-15 1.67D-09 XBig12= 1.38D-01 9.56D-02.
 AX will form    54 AO Fock derivatives at one time.
     54 vectors produced by pass  1 Test12= 5.95D-15 1.67D-09 XBig12= 8.13D-03 2.83D-02.
     54 vectors produced by pass  2 Test12= 5.95D-15 1.67D-09 XBig12= 6.91D-05 1.70D-03.
     54 vectors produced by pass  3 Test12= 5.95D-15 1.67D-09 XBig12= 2.51D-07 7.64D-05.
     54 vectors produced by pass  4 Test12= 5.95D-15 1.67D-09 XBig12= 6.77D-10 4.17D-06.
     54 vectors produced by pass  5 Test12= 5.95D-15 1.67D-09 XBig12= 1.64D-12 1.93D-07.
     22 vectors produced by pass  6 Test12= 5.95D-15 1.67D-09 XBig12= 5.55D-15 1.34D-08.
      2 vectors produced by pass  7 Test12= 5.95D-15 1.67D-09 XBig12= 1.43D-16 2.47D-09.
      2 vectors produced by pass  8 Test12= 5.95D-15 1.67D-09 XBig12= 1.59D-16 1.86D-09.
      1 vectors produced by pass  9 Test12= 5.95D-15 1.67D-09 XBig12= 1.17D-16 1.69D-09.
 InvSVY:  IOpt=1 It=  1 EMax= 3.89D-16
 Solved reduced A of dimension   351 with    60 vectors.
 End of Minotr F.D. properties file   721 does not exist.
 End of Minotr F.D. properties file   722 does not exist.
 End of Minotr F.D. properties file   788 does not exist.
 Leave Link 1002 at Wed Sep  3 14:23:11 2025, MaxMem=  8053063680 cpu:       131.6
 (Enter /nexus/posix0/bmm/home/sucerqdl/sw/g09/l601.exe)
 Copying SCF densities to generalized density rwf, IOpCl= 0 IROHF=0.

 **********************************************************************

            Population analysis using the SCF density.

 **********************************************************************

 Orbital symmetries:
       Occupied  (A) (A) (A) (A) (A) (A) (A) (A) (A) (A) (A) (A)
                 (A) (A) (A) (A) (A) (A) (A) (A) (A) (A) (A) (A)
                 (A) (A) (A) (A) (A) (A) (A) (A) (A) (A) (A)
       Virtual   (A) (A) (A) (A) (A) (A) (A) (A) (A) (A) (A) (A)
                 (A) (A) (A) (A) (A) (A) (A) (A) (A) (A) (A) (A)
                 (A) (A) (A) (A) (A) (A) (A) (A) (A) (A) (A) (A)
                 (A) (A) (A) (A) (A) (A) (A) (A) (A) (A) (A) (A)
                 (A) (A) (A) (A) (A) (A) (A) (A) (A) (A) (A) (A)
                 (A) (A) (A) (A) (A) (A) (A) (A) (A) (A) (A) (A)
                 (A) (A) (A) (A) (A) (A) (A) (A) (A) (A) (A) (A)
                 (A) (A) (A) (A) (A) (A) (A) (A) (A) (A) (A) (A)
                 (A) (A) (A) (A) (A) (A)
 The electronic state is 1-A.
 Alpha  occ. eigenvalues --  -19.54227 -19.52734 -14.72517 -14.71867 -10.63458
 Alpha  occ. eigenvalues --  -10.62121 -10.55249 -10.54485 -10.50495  -1.15032
 Alpha  occ. eigenvalues --   -1.13754  -0.97414  -0.96626  -0.80551  -0.78650
 Alpha  occ. eigenvalues --   -0.76420  -0.63466  -0.62795  -0.56936  -0.51903
 Alpha  occ. eigenvalues --   -0.51900  -0.50868  -0.50085  -0.48744  -0.48182
 Alpha  occ. eigenvalues --   -0.47858  -0.45926  -0.44289  -0.44008  -0.42950
 Alpha  occ. eigenvalues --   -0.41246  -0.31278  -0.30614  -0.29608  -0.29349
 Alpha virt. eigenvalues --    0.01984   0.03083   0.03472   0.03618   0.04305
 Alpha virt. eigenvalues --    0.06677   0.07209   0.07348   0.08002   0.08661
 Alpha virt. eigenvalues --    0.09118   0.10080   0.10993   0.11671   0.11905
 Alpha virt. eigenvalues --    0.12578   0.13049   0.13652   0.15403   0.16054
 Alpha virt. eigenvalues --    0.16299   0.17327   0.18292   0.19395   0.20574
 Alpha virt. eigenvalues --    0.20737   0.22200   0.22717   0.22991   0.23569
 Alpha virt. eigenvalues --    0.23884   0.24964   0.26682   0.27209   0.27661
 Alpha virt. eigenvalues --    0.27703   0.29105   0.29631   0.31080   0.31613
 Alpha virt. eigenvalues --    0.31767   0.33246   0.34004   0.35616   0.36201
 Alpha virt. eigenvalues --    0.36253   0.36887   0.38552   0.39849   0.40585
 Alpha virt. eigenvalues --    0.42704   0.44795   0.46327   0.46831   0.52124
 Alpha virt. eigenvalues --    0.55468   0.65921   0.68692   0.69465   0.70316
 Alpha virt. eigenvalues --    0.70898   0.73886   0.77317   0.78965   0.80568
 Alpha virt. eigenvalues --    0.82769   0.84369   0.85898   0.91770   0.93428
 Alpha virt. eigenvalues --    0.98811   0.99975   1.01533   1.01794   1.09847
 Alpha virt. eigenvalues --    1.11535   1.12188   1.12770   1.13013   1.15173
 Alpha virt. eigenvalues --    1.16231   1.18656   1.22158   1.22801   1.24982
 Alpha virt. eigenvalues --    1.28558   1.32740   1.33854   1.36217   1.36447
 Alpha virt. eigenvalues --    1.41459   1.43129   1.45532   1.49635   1.51158
 Alpha virt. eigenvalues --    1.53384   1.55913   1.58444   1.65966   1.82466
 Alpha virt. eigenvalues --    2.00640   2.09873
          Condensed to atoms (all electrons):
               1          2          3          4          5          6
     1  C    6.209106   0.341082   0.399576   0.399574  -0.214192  -0.135857
     2  H    0.341082   0.526217  -0.026080  -0.026080  -0.024604   0.006478
     3  H    0.399576  -0.026080   0.468135  -0.022935  -0.043554  -0.003269
     4  H    0.399574  -0.026080  -0.022935   0.468136  -0.043553  -0.003269
     5  C   -0.214192  -0.024604  -0.043554  -0.043553   5.572569   0.424119
     6  O   -0.135857   0.006478  -0.003269  -0.003269   0.424119   8.469603
     7  N   -0.215698   0.005614   0.000370   0.000370  -0.042964  -0.212551
     8  H    0.010906  -0.000247   0.000002   0.000002   0.019992   0.006669
     9  C   -0.130546   0.000802  -0.002880  -0.002880  -0.617716  -0.041960
    10  H   -0.001599   0.000000   0.000007  -0.000002   0.001412   0.000852
    11  H   -0.001599   0.000000  -0.000002   0.000007   0.001410   0.000853
    12  C    0.047600  -0.000138  -0.000235  -0.000235   0.325833   0.013219
    13  O   -0.001677  -0.000001   0.000000   0.000000   0.004865  -0.000169
    14  N   -0.000566   0.000003   0.000000   0.000000   0.005230  -0.001439
    15  H    0.000072   0.000000   0.000000   0.000000   0.001835   0.000061
    16  C    0.000139   0.000000   0.000000   0.000000   0.002721  -0.000083
    17  H    0.000000   0.000000   0.000000   0.000000   0.000018   0.000000
    18  H   -0.000001   0.000000   0.000000   0.000000  -0.000028   0.000000
    19  H    0.000000   0.000000   0.000000   0.000000   0.000018   0.000000
               7          8          9         10         11         12
     1  C   -0.215698   0.010906  -0.130546  -0.001599  -0.001599   0.047600
     2  H    0.005614  -0.000247   0.000802   0.000000   0.000000  -0.000138
     3  H    0.000370   0.000002  -0.002880   0.000007  -0.000002  -0.000235
     4  H    0.000370   0.000002  -0.002880  -0.000002   0.000007  -0.000235
     5  C   -0.042964   0.019992  -0.617716   0.001412   0.001410   0.325833
     6  O   -0.212551   0.006669  -0.041960   0.000852   0.000853   0.013219
     7  N    7.606645   0.259080   0.261364  -0.047255  -0.047256  -0.034938
     8  H    0.259080   0.324942  -0.045481   0.001647   0.001647   0.013332
     9  C    0.261364  -0.045481   9.993098   0.335843   0.335846  -2.870879
    10  H   -0.047255   0.001647   0.335843   0.498326  -0.037147  -0.004379
    11  H   -0.047256   0.001647   0.335846  -0.037147   0.498329  -0.004381
    12  C   -0.034938   0.013332  -2.870879  -0.004379  -0.004381   7.210594
    13  O    0.021696   0.002847   0.019922   0.001153   0.001153   0.247625
    14  N    0.012213   0.001577  -0.637411   0.013770   0.013770   0.483805
    15  H   -0.000081  -0.000003   0.056219  -0.000563  -0.000562  -0.049458
    16  C    0.002397   0.000344  -0.143160   0.001905   0.001905  -0.000102
    17  H   -0.000012   0.000000   0.003880   0.000005  -0.000001  -0.002067
    18  H   -0.000013   0.000000  -0.008625  -0.000002  -0.000002  -0.008639
    19  H   -0.000012   0.000000   0.003880  -0.000001   0.000005  -0.002066
              13         14         15         16         17         18
     1  C   -0.001677  -0.000566   0.000072   0.000139   0.000000  -0.000001
     2  H   -0.000001   0.000003   0.000000   0.000000   0.000000   0.000000
     3  H    0.000000   0.000000   0.000000   0.000000   0.000000   0.000000
     4  H    0.000000   0.000000   0.000000   0.000000   0.000000   0.000000
     5  C    0.004865   0.005230   0.001835   0.002721   0.000018  -0.000028
     6  O   -0.000169  -0.001439   0.000061  -0.000083   0.000000   0.000000
     7  N    0.021696   0.012213  -0.000081   0.002397  -0.000012  -0.000013
     8  H    0.002847   0.001577  -0.000003   0.000344   0.000000   0.000000
     9  C    0.019922  -0.637411   0.056219  -0.143160   0.003880  -0.008625
    10  H    0.001153   0.013770  -0.000563   0.001905   0.000005  -0.000002
    11  H    0.001153   0.013770  -0.000562   0.001905  -0.000001  -0.000002
    12  C    0.247625   0.483805  -0.049458  -0.000102  -0.002067  -0.008639
    13  O    8.458060  -0.203716   0.009739  -0.022667  -0.000044   0.004864
    14  N   -0.203716   7.530154   0.260888   0.186238  -0.037334  -0.035575
    15  H    0.009739   0.260888   0.399528  -0.027380  -0.000727   0.002115
    16  C   -0.022667   0.186238  -0.027380   5.235244   0.380857   0.403529
    17  H   -0.000044  -0.037334  -0.000727   0.380857   0.501248  -0.023190
    18  H    0.004864  -0.035575   0.002115   0.403529  -0.023190   0.447947
    19  H   -0.000044  -0.037333  -0.000727   0.380857  -0.034167  -0.023190
              19
     1  C    0.000000
     2  H    0.000000
     3  H    0.000000
     4  H    0.000000
     5  C    0.000018
     6  O    0.000000
     7  N   -0.000012
     8  H    0.000000
     9  C    0.003880
    10  H   -0.000001
    11  H    0.000005
    12  C   -0.002066
    13  O   -0.000044
    14  N   -0.037333
    15  H   -0.000727
    16  C    0.380857
    17  H   -0.034167
    18  H   -0.023190
    19  H    0.501248
 Mulliken charges:
               1
     1  C   -0.706322
     2  H    0.196954
     3  H    0.230866
     4  H    0.230865
     5  C    0.626587
     6  O   -0.523255
     7  N   -0.568971
     8  H    0.402745
     9  C   -0.509319
    10  H    0.236027
    11  H    0.236025
    12  C    0.635508
    13  O   -0.543606
    14  N   -0.554273
    15  H    0.349042
    16  C   -0.402744
    17  H    0.211532
    18  H    0.240807
    19  H    0.211531
 Sum of Mulliken charges =   0.00000
 Mulliken charges with hydrogens summed into heavy atoms:
               1
     1  C   -0.047636
     5  C    0.626587
     6  O   -0.523255
     7  N   -0.166226
     9  C   -0.037267
    12  C    0.635508
    13  O   -0.543606
    14  N   -0.205231
    16  C    0.261126
 APT charges:
               1
     1  C   -1.665503
     2  H    0.407202
     3  H    0.634796
     4  H    0.634788
     5  C    0.443352
     6  O   -0.457133
     7  N   -0.749931
     8  H    0.575650
     9  C   -0.798020
    10  H    0.433530
    11  H    0.433529
    12  C    0.273558
    13  O   -0.512135
    14  N   -0.227624
    15  H    0.505337
    16  C   -1.683152
    17  H    0.645433
    18  H    0.460882
    19  H    0.645441
 Sum of APT charges =   0.00000
 APT charges with hydrogens summed into heavy atoms:
               1
     1  C    0.011283
     5  C    0.443352
     6  O   -0.457133
     7  N   -0.174281
     9  C    0.069039
    12  C    0.273558
    13  O   -0.512135
    14  N    0.277713
    16  C    0.068605
 Electronic spatial extent (au):  <R**2>=           2325.9438
 Charge=              0.0000 electrons
 Dipole moment (field-independent basis, Debye):
    X=              2.5941    Y=             -0.5858    Z=              0.0001  Tot=              2.6594
 Quadrupole moment (field-independent basis, Debye-Ang):
   XX=            -35.4377   YY=            -61.7011   ZZ=            -55.7069
   XY=            -18.7032   XZ=              0.0010   YZ=              0.0004
 Traceless Quadrupole moment (field-independent basis, Debye-Ang):
   XX=             15.5109   YY=            -10.7525   ZZ=             -4.7583
   XY=            -18.7032   XZ=              0.0010   YZ=              0.0004
 Octapole moment (field-independent basis, Debye-Ang**2):
  XXX=             59.2344  YYY=             -1.2265  ZZZ=              0.0003  XYY=             10.1078
  XXY=             10.0803  XXZ=             -0.0004  XZZ=             -1.0473  YZZ=             -2.2604
  YYZ=              0.0001  XYZ=             -0.0006
 Hexadecapole moment (field-independent basis, Debye-Ang**3):
 XXXX=          -2102.2217 YYYY=           -304.3288 ZZZZ=            -75.6523 XXXY=           -118.5676
 XXXZ=              0.0107 YYYX=            -55.4788 YYYZ=              0.0073 ZZZX=              0.0055
 ZZZY=              0.0064 XXYY=           -532.5025 XXZZ=           -450.8745 YYZZ=            -61.5454
 XXYZ=              0.0051 YYXZ=              0.0068 ZZXY=              3.7334
 N-N= 4.112906626872D+02 E-N=-1.886808255628D+03  KE= 4.521218643984D+02
  Exact polarizability:   0.000   0.000   0.000   0.000   0.000   0.000
 Approx polarizability: 117.069  -2.686 114.470   0.000  -0.003  64.010
 No NMR shielding tensors so no spin-rotation constants.
 Leave Link  601 at Wed Sep  3 14:23:11 2025, MaxMem=  8053063680 cpu:         1.5
 (Enter /nexus/posix0/bmm/home/sucerqdl/sw/g09/l701.exe)
 Compute integral second derivatives.
 ... and contract with generalized density number  0.
 Leave Link  701 at Wed Sep  3 14:23:12 2025, MaxMem=  8053063680 cpu:         1.5
 (Enter /nexus/posix0/bmm/home/sucerqdl/sw/g09/l702.exe)
 L702 exits ... SP integral derivatives will be done elsewhere.
 Leave Link  702 at Wed Sep  3 14:23:12 2025, MaxMem=  8053063680 cpu:         0.3
 (Enter /nexus/posix0/bmm/home/sucerqdl/sw/g09/l703.exe)
 Compute integral second derivatives, UseDBF=F ICtDFT=           0.
 Integral derivatives from FoFJK, PRISM(SPDF).
 Calling FoFJK, ICntrl=    100147 FMM=F ISym2X=0 I1Cent= 0 IOpClX= 0 NMat=1 NMatS=1 NMatT=0.
 FoFJK:  IHMeth= 1 ICntrl=  100147 DoSepK=F KAlg= 0 I1Cent=   0 FoldK=F
 IRaf=         0 NMat=   1 IRICut=       1 DoRegI=T DoRafI=F ISym2E= 0.
 FoFCou: FMM=F IPFlag=           0 FMFlag=      100000 FMFlg1=         800
         NFxFlg=           0 DoJE=F BraDBF=F KetDBF=F FulRan=T
         wScrn=  0.000000 ICntrl=  100147 IOpCl=  0 I1Cent=           0 NGrid=           0
         NMat0=    1 NMatS0=      1 NMatT0=    0 NMatD0=    1 NMtDS0=    0 NMtDT0=    0
 Symmetry not used in FoFCou.
 Leave Link  703 at Wed Sep  3 14:23:18 2025, MaxMem=  8053063680 cpu:       102.2
 (Enter /nexus/posix0/bmm/home/sucerqdl/sw/g09/l716.exe)
 Dipole        = 1.02058371D+00-2.30465529D-01 4.06050264D-05
 Polarizability= 0.00000000D+00 0.00000000D+00 0.00000000D+00
                 0.00000000D+00 0.00000000D+00 0.00000000D+00
 ***** Axes restored to original set *****
 -------------------------------------------------------------------
 Center     Atomic                   Forces (Hartrees/Bohr)
 Number     Number              X              Y              Z
 -------------------------------------------------------------------
      1        6           0.067571887   -0.001152936   -0.000000308
      2        1           0.000696444   -0.000191506    0.000000036
      3        1           0.003448379    0.000476603    0.001318359
      4        1           0.003448085    0.000476101   -0.001318114
      5        6           0.007260170   -0.002565197    0.000000250
      6        8          -0.001791604    0.004909973   -0.000000203
      7        7          -0.001599786   -0.003594614    0.000000010
      8        1          -0.000211373    0.000180620    0.000000022
      9        6          -0.002216724   -0.000636349    0.000001060
     10        1          -0.000349030    0.000957678   -0.000083076
     11        1          -0.000349115    0.000958275    0.000081972
     12        6           0.004977924    0.002129794   -0.000000094
     13        8           0.000287304   -0.004566764    0.000000328
     14        7          -0.004171559    0.003722072   -0.000000340
     15        1           0.000993800   -0.000215958   -0.000000005
     16        6          -0.069192614   -0.001364541    0.000000150
     17        1          -0.003889041    0.000326295    0.001373494
     18        1          -0.001024063   -0.000175795    0.000000007
     19        1          -0.003889084    0.000326251   -0.001373547
 -------------------------------------------------------------------
 Cartesian Forces:  Max     0.069192614 RMS     0.012986117
 FormGI is forming the generalized inverse of G from B-inverse, IUseBI=4.
 GSVD:  received Info=                   1 from GESDD.
 Leave Link  716 at Wed Sep  3 14:23:18 2025, MaxMem=  8053063680 cpu:         0.7
 (Enter /nexus/posix0/bmm/home/sucerqdl/sw/g09/l103.exe)

 GradGradGradGradGradGradGradGradGradGradGradGradGradGradGradGradGradGrad
 Berny optimization.
 Red2BG is reusing G-inverse.
 Internal  Forces:  Max     0.067577835 RMS     0.008243607
 Search for a local minimum.
 Step number   1 out of a maximum of   91
 All quantities printed in internal units (Hartrees-Bohrs-Radians)
 RMS Force = .19045D-02 SwitMx=.10000D-02 MixMth= 1
 Mixed Optimization -- RFO/linear search
 Second derivative matrix not updated -- analytic derivatives used.
 ITU=  0
     Eigenvalues ---    0.00043   0.00063   0.00183   0.00363   0.00700
     Eigenvalues ---    0.00750   0.02045   0.03008   0.04113   0.04990
     Eigenvalues ---    0.05083   0.05235   0.05797   0.06239   0.06366
     Eigenvalues ---    0.06497   0.06906   0.08030   0.11087   0.11418
     Eigenvalues ---    0.11781   0.12244   0.12525   0.13342   0.13500
     Eigenvalues ---    0.13913   0.15214   0.15695   0.16056   0.18297
     Eigenvalues ---    0.19672   0.19941   0.21204   0.22932   0.24935
     Eigenvalues ---    0.30369   0.33642   0.34377   0.35198   0.35559
     Eigenvalues ---    0.35862   0.35905   0.36087   0.36302   0.36842
     Eigenvalues ---    0.47853   0.48638   0.57540   0.75220   0.77388
     Eigenvalues --- 1000.000001000.000001000.000001000.000001000.00000
     Eigenvalues --- 1000.000001000.000001000.000001000.000001000.00000
     Eigenvalues --- 1000.000001000.000001000.000001000.000001000.00000
     Eigenvalues --- 1000.000001000.000001000.000001000.000001000.00000
     Eigenvalues --- 1000.000001000.000001000.000001000.000001000.00000
     Eigenvalues --- 1000.000001000.000001000.000001000.000001000.00000
     Eigenvalues --- 1000.00000
 RFO step:  Lambda=-1.45352341D-03 EMin= 4.31964922D-04
 Linear search not attempted -- first point.
 Iteration  1 RMS(Cart)=  0.02554662 RMS(Int)=  0.00055060
 Iteration  2 RMS(Cart)=  0.00045357 RMS(Int)=  0.00014707
 Iteration  3 RMS(Cart)=  0.00000033 RMS(Int)=  0.00014707
 Iteration  1 RMS(Cart)=  0.00001003 RMS(Int)=  0.00000230
 Iteration  2 RMS(Cart)=  0.00000126 RMS(Int)=  0.00000243
 Iteration  3 RMS(Cart)=  0.00000016 RMS(Int)=  0.00000246
 ITry= 1 IFail=0 DXMaxC= 8.00D-02 DCOld= 1.00D+10 DXMaxT= 3.00D-01 DXLimC= 3.00D+00 Rises=F
 Variable       Old X    -DE/DX   Delta X   Delta X   Delta X     New X
                                 (Linear)    (Quad)   (Total)
    R1        2.06700  -0.00026   0.00000  -0.00224  -0.00224   2.06476
    R2        2.07096  -0.00263   0.00000  -0.00897  -0.00897   2.06199
    R3        2.07096  -0.00263   0.00000  -0.00896  -0.00896   2.06199
    R4        3.33223  -0.00733   0.00000   0.04845   0.04852   3.38074
    R5       16.41359  -0.06758   0.00000   0.00000   0.00000  16.41359
    R6        2.34750  -0.00501   0.00000  -0.00492  -0.00492   2.34258
    R7        2.76024  -0.01229   0.00000  -0.02623  -0.02618   2.73406
    R8        1.91323   0.00018   0.00000   0.00004   0.00004   1.91326
    R9        2.99743  -0.01069   0.00000  -0.01984  -0.01978   2.97765
   R10        2.07516  -0.00051   0.00000  -0.00134  -0.00134   2.07382
   R11        2.07516  -0.00051   0.00000  -0.00134  -0.00134   2.07382
   R12        3.19442  -0.00707   0.00000   0.00054   0.00059   3.19501
   R13        2.33341  -0.00457   0.00000  -0.00341  -0.00341   2.33000
   R14        2.74814  -0.01308   0.00000  -0.02904  -0.02899   2.71915
   R15        1.91639   0.00010   0.00000   0.00032   0.00032   1.91671
   R16        3.15073  -0.01032   0.00000   0.00373   0.00379   3.15453
   R17        2.07030  -0.00282   0.00000  -0.00924  -0.00924   2.06106
   R18        2.06373  -0.00022   0.00000  -0.00152  -0.00152   2.06221
   R19        2.07030  -0.00282   0.00000  -0.00924  -0.00924   2.06106
    A1        1.95348   0.00170   0.00000   0.01755   0.01743   1.97090
    A2        1.95347   0.00170   0.00000   0.01755   0.01743   1.97090
    A3        1.98012   0.00017   0.00000   0.00344   0.00333   1.98345
    A4        1.93437   0.00266   0.00000   0.02501   0.02422   1.95859
    A5        1.81685  -0.00342   0.00000  -0.03488  -0.03520   1.78165
    A6        1.81685  -0.00342   0.00000  -0.03488  -0.03519   1.78166
    A7        1.94650  -0.00020   0.00000  -0.02414  -0.02417   1.92233
    A8        2.30254  -0.00312   0.00000   0.01424   0.01428   2.31682
    A9        2.03415   0.00332   0.00000   0.00991   0.00988   2.04403
   A10        2.10658   0.00215   0.00000  -0.00049  -0.00050   2.10608
   A11        2.15018  -0.00471   0.00000  -0.00439  -0.00437   2.14581
   A12        2.02643   0.00256   0.00000   0.00488   0.00487   2.03130
   A13        1.85641   0.00052   0.00000  -0.00130  -0.00132   1.85509
   A14        1.85641   0.00052   0.00000  -0.00130  -0.00132   1.85509
   A15        2.13606  -0.00309   0.00000  -0.00013  -0.00009   2.13598
   A16        1.87255   0.00031   0.00000   0.00696   0.00696   1.87951
   A17        1.86452   0.00102   0.00000  -0.00144  -0.00146   1.86306
   A18        1.86452   0.00102   0.00000  -0.00144  -0.00146   1.86306
   A19        2.07009   0.00317   0.00000   0.00021   0.00019   2.07028
   A20        2.08018  -0.00607   0.00000  -0.00590  -0.00587   2.07431
   A21        2.13292   0.00290   0.00000   0.00569   0.00568   2.13860
   A22        1.98446   0.00182   0.00000   0.00747   0.00746   1.99192
   A23        2.37273  -0.00171   0.00000   0.00780   0.00783   2.38056
   A24        1.92600  -0.00011   0.00000  -0.01527  -0.01529   1.91071
   A25        1.86830  -0.00384   0.00000  -0.02709  -0.02734   1.84096
   A26        1.86011  -0.00033   0.00000  -0.00111  -0.00121   1.85891
   A27        1.86829  -0.00384   0.00000  -0.02709  -0.02734   1.84095
   A28        1.94919   0.00197   0.00000   0.01351   0.01340   1.96259
   A29        1.96195   0.00328   0.00000   0.02281   0.02234   1.98429
   A30        1.94919   0.00197   0.00000   0.01352   0.01340   1.96259
    D1       -3.14156   0.00000   0.00000   0.00000   0.00000  -3.14157
    D2        0.00003   0.00000   0.00000  -0.00001  -0.00001   0.00003
    D3       -1.01379  -0.00009   0.00000   0.00022  -0.00010  -1.01389
    D4        2.12781  -0.00009   0.00000   0.00021  -0.00010   2.12771
    D5        1.01385   0.00009   0.00000  -0.00023   0.00009   1.01394
    D6       -2.12774   0.00009   0.00000  -0.00023   0.00009  -2.12765
    D7       -0.00001   0.00000   0.00000   0.00001   0.00001   0.00000
    D8        3.14159   0.00000   0.00000   0.00000   0.00000   3.14159
    D9        3.14158   0.00000   0.00000   0.00001   0.00001   3.14159
   D10        0.00000   0.00000   0.00000   0.00000   0.00000   0.00000
   D11        0.99609   0.00041   0.00000   0.00337   0.00337   0.99946
   D12       -0.99612  -0.00041   0.00000  -0.00335  -0.00335  -0.99946
   D13        3.14158   0.00000   0.00000   0.00001   0.00001   3.14159
   D14       -2.14550   0.00041   0.00000   0.00337   0.00337  -2.14213
   D15        2.14548  -0.00041   0.00000  -0.00335  -0.00335   2.14213
   D16       -0.00001   0.00000   0.00000   0.00001   0.00001   0.00000
   D17       -0.00001   0.00000   0.00000   0.00000   0.00000   0.00000
   D18        3.14158   0.00000   0.00000   0.00000   0.00000   3.14159
   D19        2.14174  -0.00066   0.00000  -0.00330  -0.00330   2.13844
   D20       -0.99986  -0.00066   0.00000  -0.00330  -0.00330  -1.00315
   D21       -2.14175   0.00066   0.00000   0.00331   0.00330  -2.13845
   D22        0.99984   0.00066   0.00000   0.00331   0.00330   1.00314
   D23        0.00000   0.00000   0.00000   0.00000   0.00000   0.00000
   D24        3.14159   0.00000   0.00000   0.00000   0.00000   3.14159
   D25        3.14159   0.00000   0.00000   0.00000   0.00000   3.14159
   D26        0.00000   0.00000   0.00000   0.00000   0.00000   0.00000
   D27       -2.08793  -0.00014   0.00000  -0.00119  -0.00103  -2.08896
   D28        0.00004   0.00000   0.00000   0.00000   0.00000   0.00004
   D29        2.08800   0.00014   0.00000   0.00119   0.00103   2.08904
   D30        1.05366  -0.00014   0.00000  -0.00118  -0.00103   1.05263
   D31       -3.14155   0.00000   0.00000   0.00000   0.00000  -3.14155
   D32       -1.05359   0.00014   0.00000   0.00119   0.00103  -1.05256
         Item               Value     Threshold  Converged?
 Maximum Force            0.005007     0.000450     NO 
 RMS     Force            0.001905     0.000300     NO 
 Maximum Displacement     0.080000     0.001800     NO 
 RMS     Displacement     0.025611     0.001200     NO 
 Predicted change in Energy=-7.312593D-04
 Lowest energy point so far.  Saving SCF results.
 GradGradGradGradGradGradGradGradGradGradGradGradGradGradGradGradGradGrad

 Leave Link  103 at Wed Sep  3 14:23:18 2025, MaxMem=  8053063680 cpu:         0.9
 (Enter /nexus/posix0/bmm/home/sucerqdl/sw/g09/l202.exe)
                          Input orientation:                          
 ---------------------------------------------------------------------
 Center     Atomic      Atomic             Coordinates (Angstroms)
 Number     Number       Type             X           Y           Z
 ---------------------------------------------------------------------
      1          6           0       -0.007361   -0.007478    0.000000
      2          1           0       -0.131002    1.078129   -0.000088
      3          1           0       -0.391850   -0.479113   -0.905735
      4          1           0       -0.391842   -0.478964    0.905816
      5          6           0        1.702143   -0.534882    0.000030
      6          8           0        1.766934   -1.772828    0.000101
      7          7           0        2.953716    0.190929   -0.000012
      8          1           0        2.963598    1.203336   -0.000073
      9          6           0        4.358377   -0.523053    0.000031
     10          1           0        4.374663   -1.170363   -0.886000
     11          1           0        4.374664   -1.170256    0.886141
     12          6           0        5.812552    0.339462   -0.000023
     13          8           0        5.768336    1.571652   -0.000103
     14          7           0        7.052650   -0.390354    0.000026
     15          1           0        6.940487   -1.398414    0.000093
     16          6           0        8.678334   -0.011248    0.000001
     17          1           0        9.080043   -0.452199   -0.913097
     18          1           0        8.742690    1.078125   -0.000030
     19          1           0        9.080052   -0.452148    0.913120
 ---------------------------------------------------------------------
                    Distance matrix (angstroms):
                    1          2          3          4          5
     1  C    0.000000
     2  H    1.092625   0.000000
     3  H    1.091159   1.820231   0.000000
     4  H    1.091159   1.820230   1.811551   0.000000
     5  C    1.789011   2.441767   2.282176   2.282181   0.000000
     6  O    2.502915   3.424926   2.674806   2.674831   1.239640
     7  N    2.967717   3.209768   3.530171   3.530162   1.446803
     8  H    3.208219   3.097132   3.861333   3.861314   2.147713
     9  C    4.396076   4.766372   4.836011   4.836008   2.656260
    10  H    4.619462   5.112883   4.816416   5.138892   2.886390
    11  H    4.619464   5.112891   5.138887   4.816415   2.886392
    12  C    5.830245   5.989278   6.323368   6.323359   4.202373
    13  O    5.987682   5.919945   6.555433   6.555419   4.579456
    14  N    7.070385   7.332209   7.499924   7.499918   5.352458
    15  H    7.085711   7.492611   7.445052   7.445050   5.309042
    16  C    8.685696   8.876438   9.127295   9.127287   6.995816
    17  H    9.143984   9.381835   9.471934   9.644987   7.434651
    18  H    8.817138   8.873692   9.310484   9.310465   7.222956
    19  H    9.143993   9.381856   9.644994   9.471935   7.434657
                    6          7          8          9         10
     6  O    0.000000
     7  N    2.294514   0.000000
     8  H    3.207734   1.012455   0.000000
     9  C    2.877067   1.575704   2.219421   0.000000
    10  H    2.819289   2.158051   2.900073   1.097418   0.000000
    11  H    2.819294   2.158051   2.900073   1.097418   1.772141
    12  C    4.563857   2.862691   2.977048   1.690727   2.265403
    13  O    5.215052   3.135041   2.828818   2.525030   3.200904
    14  N    5.463518   4.139945   4.388644   2.697539   2.926614
    15  H    5.187084   4.291894   4.752342   2.726453   2.724082
    16  C    7.132365   5.728187   5.842382   4.350170   4.544242
    17  H    7.487293   6.227296   6.401977   4.809673   4.759947
    18  H    7.535855   5.856563   5.780448   4.667545   4.992024
    19  H    7.487289   6.227307   6.401997   4.809676   5.088552
                   11         12         13         14         15
    11  H    0.000000
    12  C    2.265404   0.000000
    13  O    3.200908   1.232983   0.000000
    14  N    2.926611   1.438914   2.344980   0.000000
    15  H    2.724075   2.071823   3.192997   1.014281   0.000000
    16  C    4.544241   2.887163   3.312652   1.669303   2.223588
    17  H    5.088561   3.483810   3.987096   2.224397   2.511362
    18  H    4.992010   3.021810   3.015021   2.238899   3.062872
    19  H    4.759946   3.483825   3.987130   2.224392   2.511330
                   16         17         18         19
    16  C    0.000000
    17  H    1.090668   0.000000
    18  H    1.091272   1.813668   0.000000
    19  H    1.090668   1.826217   1.813668   0.000000
 Stoichiometry    C5H10N2O2
 Framework group  C1[X(C5H10N2O2)]
 Deg. of freedom    51
 Full point group                 C1      NOp   1
 RotChk:  IX=0 Diff= 2.76D-04
 Largest Abelian subgroup         C1      NOp   1
 Largest concise Abelian subgroup C1      NOp   1
                         Standard orientation:                         
 ---------------------------------------------------------------------
 Center     Atomic      Atomic             Coordinates (Angstroms)
 Number     Number       Type             X           Y           Z
 ---------------------------------------------------------------------
      1          6           0       -4.233004    0.559541   -0.000007
      2          1           0       -4.246756    1.652079   -0.000094
      3          1           0       -4.663008    0.128997   -0.905742
      4          1           0       -4.662985    0.129145    0.905809
      5          6           0       -2.585260   -0.137238    0.000023
      6          8           0       -2.645391   -1.375419    0.000095
      7          7           0       -1.266993    0.458925   -0.000018
      8          1           0       -1.155268    1.465197   -0.000080
      9          6           0        0.058677   -0.392804    0.000024
     10          1           0        0.009732   -1.038466   -0.886007
     11          1           0        0.009744   -1.038359    0.886134
     12          6           0        1.592276    0.318977   -0.000030
     13          8           0        1.672298    1.549361   -0.000110
     14          7           0        2.752625   -0.531943    0.000019
     15          1           0        2.539576   -1.523595    0.000086
     16          6           0        4.408210   -0.318377   -0.000005
     17          1           0        4.763500   -0.797520   -0.913104
     18          1           0        4.581878    0.758987   -0.000036
     19          1           0        4.763514   -0.797469    0.913114
 ---------------------------------------------------------------------
 Rotational constants (GHZ):      5.0682788      0.5124985      0.4696880
 Leave Link  202 at Wed Sep  3 14:23:18 2025, MaxMem=  8053063680 cpu:         0.1
 (Enter /nexus/posix0/bmm/home/sucerqdl/sw/g09/l301.exe)
 Standard basis: 6-31+G (6D, 7F)
 Ernie: Thresh=  0.10000D-02 Tol=  0.10000D-05 Strict=F.
 There are   137 symmetry adapted cartesian basis functions of A   symmetry.
 There are   137 symmetry adapted basis functions of A   symmetry.
   137 basis functions,   274 primitive gaussians,   137 cartesian basis functions
    35 alpha electrons       35 beta electrons
       nuclear repulsion energy       412.4506156064 Hartrees.
 IExCor= 3226 DFT=T Ex+Corr=BMK ExCW=0 ScaHFX=  0.420000
 ScaDFX=  1.000000  1.000000  1.000000  1.000000 ScalE2=  1.000000  1.000000
 IRadAn=      0 IRanWt=     -1 IRanGd=            0 ICorTp=0 IEmpDi=  4
 NAtoms=   19 NActive=   19 NUniq=   19 SFac= 1.00D+00 NAtFMM=   60 NAOKFM=F Big=F
 Integral buffers will be    131072 words long.
 Raffenetti 2 integral format.
 Two-electron integral symmetry is turned on.
 Leave Link  301 at Wed Sep  3 14:23:19 2025, MaxMem=  8053063680 cpu:         0.6
 (Enter /nexus/posix0/bmm/home/sucerqdl/sw/g09/l302.exe)
 NPDir=0 NMtPBC=     1 NCelOv=     1 NCel=       1 NClECP=     1 NCelD=      1
         NCelK=      1 NCelE2=     1 NClLst=     1 CellRange=     0.0.
 One-electron integrals computed using PRISM.
 NBasis=   137 RedAO= T EigKep=  4.08D-05  NBF=   137
 NBsUse=   137 1.00D-06 EigRej= -1.00D+00 NBFU=   137
 Precomputing XC quadrature grid using
 IXCGrd= 4 IRadAn=           0 IRanWt=          -1 IRanGd=           0 AccXCQ= 0.00D+00.
 Generated NRdTot=       0 NPtTot=           0 NUsed=           0 NTot=          32
 NSgBfM=   136   136   136   136   136 MxSgAt=    19 MxSgA2=    19.
 Leave Link  302 at Wed Sep  3 14:23:19 2025, MaxMem=  8053063680 cpu:         1.9
 (Enter /nexus/posix0/bmm/home/sucerqdl/sw/g09/l303.exe)
 DipDrv:  MaxL=1.
 Leave Link  303 at Wed Sep  3 14:23:19 2025, MaxMem=  8053063680 cpu:         0.4
 (Enter /nexus/posix0/bmm/home/sucerqdl/sw/g09/l401.exe)
 Initial guess from the checkpoint file:  "G-stretched07.chk"
 B after Tr=     0.000000    0.000000    0.000000
         Rot=    1.000000    0.000001    0.000000   -0.000053 Ang=   0.01 deg.
 Guess basis will be translated and rotated to current coordinates.
 JPrj=2 DoOrth=T DoCkMO=T.
 Generating alternative initial guess.
 ExpMin= 4.38D-02 ExpMax= 5.48D+03 ExpMxC= 8.25D+02 IAcc=2 IRadAn=         4 AccDes= 0.00D+00
 Harris functional with IExCor= 1009 and IRadAn=       4 diagonalized for initial guess.
 HarFok:  IExCor= 1009 AccDes= 0.00D+00 IRadAn=         4 IDoV= 1 UseB2=F ITyADJ=14
 ICtDFT=  3500011 ScaDFX=  1.000000  1.000000  1.000000  1.000000
 FoFCou: FMM=F IPFlag=           0 FMFlag=      100000 FMFlg1=           0
         NFxFlg=           0 DoJE=T BraDBF=F KetDBF=T FulRan=T
         wScrn=  0.000000 ICntrl=     500 IOpCl=  0 I1Cent=   200000004 NGrid=           0
         NMat0=    1 NMatS0=      1 NMatT0=    0 NMatD0=    1 NMtDS0=    0 NMtDT0=    0
 Petite list used in FoFCou.
 Harris En= -455.905751028703    
 Leave Link  401 at Wed Sep  3 14:23:19 2025, MaxMem=  8053063680 cpu:         3.9
 (Enter /nexus/posix0/bmm/home/sucerqdl/sw/g09/l502.exe)
 Closed shell SCF:
 Using DIIS extrapolation, IDIIS=  1040.
 Integral symmetry usage will be decided dynamically.
 Keep R1 ints in memory in canonical form, NReq=46076400.
 IVT=       78102 IEndB=       78102 NGot=  8053063680 MDV=  8008301248
 LenX=  8008301248 LenY=  8008282038
 Requested convergence on RMS density matrix=1.00D-08 within 128 cycles.
 Requested convergence on MAX density matrix=1.00D-06.
 Requested convergence on             energy=1.00D-06.
 No special actions if energy rises.
 FoFCou: FMM=F IPFlag=           0 FMFlag=           0 FMFlg1=           0
         NFxFlg=           0 DoJE=F BraDBF=F KetDBF=F FulRan=T
         wScrn=  0.000000 ICntrl=     600 IOpCl=  0 I1Cent=           0 NGrid=           0
         NMat0=    1 NMatS0=   9453 NMatT0=    0 NMatD0=    1 NMtDS0=    0 NMtDT0=    0
 Symmetry not used in FoFCou.

 Cycle   1  Pass 1  IDiag  1:
 E= -456.050768312179    
 DIIS: error= 1.67D-03 at cycle   1 NSaved=   1.
 NSaved= 1 IEnMin= 1 EnMin= -456.050768312179     IErMin= 1 ErrMin= 1.67D-03
 ErrMax= 1.67D-03  0.00D+00 EMaxC= 1.00D-01 BMatC= 5.40D-04 BMatP= 5.40D-04
 IDIUse=3 WtCom= 9.83D-01 WtEn= 1.67D-02
 Coeff-Com:  0.100D+01
 Coeff-En:   0.100D+01
 Coeff:      0.100D+01
 Gap=     0.502 Goal=   None    Shift=    0.000
 GapD=    0.502 DampG=2.000 DampE=1.000 DampFc=2.0000 IDamp=-1.
 RMSDP=7.75D-04 MaxDP=3.14D-02              OVMax= 8.92D-03

 Cycle   2  Pass 1  IDiag  1:
 E= -456.051642491613     Delta-E=       -0.000874179434 Rises=F Damp=F
 DIIS: error= 9.41D-04 at cycle   2 NSaved=   2.
 NSaved= 2 IEnMin= 2 EnMin= -456.051642491613     IErMin= 2 ErrMin= 9.41D-04
 ErrMax= 9.41D-04  0.00D+00 EMaxC= 1.00D-01 BMatC= 6.99D-05 BMatP= 5.40D-04
 IDIUse=3 WtCom= 9.91D-01 WtEn= 9.41D-03
 Coeff-Com:  0.102D+00 0.898D+00
 Coeff-En:   0.000D+00 0.100D+01
 Coeff:      0.101D+00 0.899D+00
 Gap=     0.316 Goal=   None    Shift=    0.000
 RMSDP=2.05D-04 MaxDP=4.36D-03 DE=-8.74D-04 OVMax= 6.21D-03

 Cycle   3  Pass 1  IDiag  1:
 E= -456.051611624000     Delta-E=        0.000030867614 Rises=F Damp=F
 DIIS: error= 1.27D-03 at cycle   3 NSaved=   3.
 NSaved= 3 IEnMin= 2 EnMin= -456.051642491613     IErMin= 2 ErrMin= 9.41D-04
 ErrMax= 1.27D-03  0.00D+00 EMaxC= 1.00D-01 BMatC= 1.34D-04 BMatP= 6.99D-05
 IDIUse=3 WtCom= 2.19D-01 WtEn= 7.81D-01
 Coeff-Com: -0.638D-01 0.613D+00 0.451D+00
 Coeff-En:   0.000D+00 0.581D+00 0.419D+00
 Coeff:     -0.140D-01 0.588D+00 0.426D+00
 Gap=     0.315 Goal=   None    Shift=    0.000
 RMSDP=1.28D-04 MaxDP=4.77D-03 DE= 3.09D-05 OVMax= 3.53D-03

 Cycle   4  Pass 1  IDiag  1:
 E= -456.051720310524     Delta-E=       -0.000108686524 Rises=F Damp=F
 DIIS: error= 1.61D-04 at cycle   4 NSaved=   4.
 NSaved= 4 IEnMin= 4 EnMin= -456.051720310524     IErMin= 4 ErrMin= 1.61D-04
 ErrMax= 1.61D-04  0.00D+00 EMaxC= 1.00D-01 BMatC= 2.64D-06 BMatP= 6.99D-05
 IDIUse=3 WtCom= 9.98D-01 WtEn= 1.61D-03
 Coeff-Com: -0.351D-01 0.216D+00 0.205D+00 0.615D+00
 Coeff-En:   0.000D+00 0.000D+00 0.000D+00 0.100D+01
 Coeff:     -0.350D-01 0.215D+00 0.204D+00 0.616D+00
 Gap=     0.314 Goal=   None    Shift=    0.000
 RMSDP=2.47D-05 MaxDP=4.56D-04 DE=-1.09D-04 OVMax= 4.55D-04

 Cycle   5  Pass 1  IDiag  1:
 E= -456.051722521104     Delta-E=       -0.000002210581 Rises=F Damp=F
 DIIS: error= 5.19D-05 at cycle   5 NSaved=   5.
 NSaved= 5 IEnMin= 5 EnMin= -456.051722521104     IErMin= 5 ErrMin= 5.19D-05
 ErrMax= 5.19D-05  0.00D+00 EMaxC= 1.00D-01 BMatC= 3.48D-07 BMatP= 2.64D-06
 IDIUse=1 WtCom= 1.00D+00 WtEn= 0.00D+00
 Coeff-Com: -0.384D-02-0.161D-01 0.776D-02 0.281D+00 0.731D+00
 Coeff:     -0.384D-02-0.161D-01 0.776D-02 0.281D+00 0.731D+00
 Gap=     0.314 Goal=   None    Shift=    0.000
 RMSDP=9.06D-06 MaxDP=3.12D-04 DE=-2.21D-06 OVMax= 1.49D-04

 Cycle   6  Pass 1  IDiag  1:
 E= -456.051722821776     Delta-E=       -0.000000300671 Rises=F Damp=F
 DIIS: error= 1.30D-05 at cycle   6 NSaved=   6.
 NSaved= 6 IEnMin= 6 EnMin= -456.051722821776     IErMin= 6 ErrMin= 1.30D-05
 ErrMax= 1.30D-05  0.00D+00 EMaxC= 1.00D-01 BMatC= 3.53D-08 BMatP= 3.48D-07
 IDIUse=1 WtCom= 1.00D+00 WtEn= 0.00D+00
 Coeff-Com:  0.149D-02-0.271D-01-0.174D-01 0.698D-01 0.334D+00 0.639D+00
 Coeff:      0.149D-02-0.271D-01-0.174D-01 0.698D-01 0.334D+00 0.639D+00
 Gap=     0.314 Goal=   None    Shift=    0.000
 RMSDP=2.88D-06 MaxDP=1.08D-04 DE=-3.01D-07 OVMax= 4.18D-05

 Cycle   7  Pass 1  IDiag  1:
 E= -456.051722858305     Delta-E=       -0.000000036529 Rises=F Damp=F
 DIIS: error= 2.66D-06 at cycle   7 NSaved=   7.
 NSaved= 7 IEnMin= 7 EnMin= -456.051722858305     IErMin= 7 ErrMin= 2.66D-06
 ErrMax= 2.66D-06  0.00D+00 EMaxC= 1.00D-01 BMatC= 1.48D-09 BMatP= 3.53D-08
 IDIUse=1 WtCom= 1.00D+00 WtEn= 0.00D+00
 Coeff-Com:  0.658D-03-0.658D-02-0.662D-02 0.426D-02 0.493D-01 0.179D+00
 Coeff-Com:  0.780D+00
 Coeff:      0.658D-03-0.658D-02-0.662D-02 0.426D-02 0.493D-01 0.179D+00
 Coeff:      0.780D+00
 Gap=     0.314 Goal=   None    Shift=    0.000
 RMSDP=9.00D-07 MaxDP=1.41D-05 DE=-3.65D-08 OVMax= 1.56D-05

 Cycle   8  Pass 1  IDiag  1:
 E= -456.051722859573     Delta-E=       -0.000000001268 Rises=F Damp=F
 DIIS: error= 2.28D-06 at cycle   8 NSaved=   8.
 NSaved= 8 IEnMin= 8 EnMin= -456.051722859573     IErMin= 8 ErrMin= 2.28D-06
 ErrMax= 2.28D-06  0.00D+00 EMaxC= 1.00D-01 BMatC= 6.02D-10 BMatP= 1.48D-09
 IDIUse=1 WtCom= 1.00D+00 WtEn= 0.00D+00
[...]
 --------------------------------------------------------------------------------
 Lowest energy point so far.  Saving SCF results.
 GradGradGradGradGradGradGradGradGradGradGradGradGradGradGradGradGradGrad

 Largest change from initial coordinates is atom   17       0.054 Angstoms.
 Leave Link  103 at Wed Sep  3 14:23:30 2025, MaxMem=  8053063680 cpu:         0.5
 (Enter /nexus/posix0/bmm/home/sucerqdl/sw/g09/l202.exe)
                          Input orientation:                          
 ---------------------------------------------------------------------
 Center     Atomic      Atomic             Coordinates (Angstroms)
 Number     Number       Type             X           Y           Z
 ---------------------------------------------------------------------
      1          6           0       -0.008755   -0.005683    0.000000
      2          1           0       -0.131959    1.079937   -0.000071
      3          1           0       -0.392240   -0.477661   -0.905961
      4          1           0       -0.392239   -0.477541    0.906023
      5          6           0        1.703028   -0.535119    0.000033
      6          8           0        1.766242   -1.772981    0.000110
      7          7           0        2.955249    0.189959   -0.000013
      8          1           0        2.965672    1.202365   -0.000080
      9          6           0        4.359214   -0.524776    0.000030
     10          1           0        4.375426   -1.171995   -0.886076
     11          1           0        4.375426   -1.171890    0.886213
     12          6           0        5.812361    0.337775   -0.000023
     13          8           0        5.768054    1.569975   -0.000103
     14          7           0        7.052938   -0.391872    0.000027
     15          1           0        6.941611   -1.399998    0.000094
     16          6           0        8.676940   -0.010157    0.000001
     17          1           0        9.080369   -0.449724   -0.913107
     18          1           0        8.739469    1.079370   -0.000041
     19          1           0        9.080376   -0.449654    0.913140
 ---------------------------------------------------------------------
                    Distance matrix (angstroms):
                    1          2          3          4          5
     1  C    0.000000
     2  H    1.092589   0.000000
     3  H    1.091141   1.820575   0.000000
     4  H    1.091141   1.820574   1.811984   0.000000
     5  C    1.791789   2.444501   2.283479   2.283480   0.000000
     6  O    2.504787   3.426706   2.675419   2.675423   1.239475
     7  N    2.970454   3.212929   3.531592   3.531591   1.446995
     8  H    3.210389   3.100049   3.862470   3.862470   2.147817
     9  C    4.398705   4.769249   4.837287   4.837288   2.656205
    10  H    4.622387   5.115929   4.818001   5.140479   2.886609
    11  H    4.622386   5.115930   5.140474   4.818002   2.886607
    12  C    5.831241   5.990471   6.323190   6.323190   4.201019
    13  O    5.987840   5.920328   6.554587   6.554586   4.577756
    14  N    7.072246   7.334096   7.500590   7.500589   5.351827
    15  H    7.088844   7.495697   7.446947   7.446946   5.309498
    16  C    8.685696   8.876092   9.126300   9.126299   6.993642
    17  H    9.145661   9.382989   9.472653   9.645741   7.434129
    18  H    8.815257   8.871427   9.307692   9.307686   7.219284
    19  H    9.145668   9.383001   9.645743   9.472659   7.434133
                    6          7          8          9         10
     6  O    0.000000
     7  N    2.294967   0.000000
     8  H    3.208008   1.012459   0.000000
     9  C    2.877763   1.575424   2.219228   0.000000
    10  H    2.820347   2.157992   2.899996   1.097424   0.000000
    11  H    2.820342   2.157992   2.900001   1.097424   1.772289
    12  C    4.563593   2.860933   2.975089   1.689862   2.264791
    13  O    5.214389   3.133100   2.826390   2.524443   3.200431
    14  N    5.464121   4.138790   4.387178   2.697001   2.926233
    15  H    5.188792   4.291742   4.751882   2.726682   2.724443
    16  C    7.131991   5.725189   5.838560   4.348286   4.542909
    17  H    7.488753   6.225755   6.399416   4.809237   4.760135
    18  H    7.534043   5.852200   5.775106   4.664753   4.989846
    19  H    7.488750   6.225764   6.399433   4.809240   5.088763
                   11         12         13         14         15
    11  H    0.000000
    12  C    2.264793   0.000000
    13  O    3.200436   1.232996   0.000000
    14  N    2.926231   1.439241   2.345159   0.000000
    15  H    2.724435   2.072453   3.193428   1.014255   0.000000
    16  C    4.542909   2.885631   3.310353   1.668259   2.223292
    17  H    5.088768   3.483353   3.985498   2.224328   2.512219
    18  H    4.989838   3.019589   3.011644   2.238065   3.062607
    19  H    4.760137   3.483365   3.985523   2.224324   2.512195
                   16         17         18         19
    16  C    0.000000
    17  H    1.090753   0.000000
    18  H    1.091320   1.813293   0.000000
    19  H    1.090753   1.826247   1.813293   0.000000
 Stoichiometry    C5H10N2O2
 Framework group  C1[X(C5H10N2O2)]
 Deg. of freedom    51
 Full point group                 C1      NOp   1
 RotChk:  IX=0 Diff= 5.50D-16
 Largest Abelian subgroup         C1      NOp   1
 Largest concise Abelian subgroup C1      NOp   1
                         Standard orientation:                         
 ---------------------------------------------------------------------
 Center     Atomic      Atomic             Coordinates (Angstroms)
 Number     Number       Type             X           Y           Z
 ---------------------------------------------------------------------
      1          6           0       -4.234206    0.561367   -0.000008
      2          1           0       -4.247663    1.653873   -0.000078
      3          1           0       -4.663190    0.130327   -0.905968
      4          1           0       -4.663178    0.130446    0.906016
      5          6           0       -2.584309   -0.137450    0.000025
      6          8           0       -2.645841   -1.375397    0.000103
      7          7           0       -1.265548    0.458087   -0.000021
      8          1           0       -1.153415    1.464318   -0.000087
      9          6           0        0.059463   -0.394149    0.000022
     10          1           0        0.010538   -1.039720   -0.886084
     11          1           0        0.010548   -1.039616    0.886205
     12          6           0        1.591952    0.317968   -0.000030
     13          8           0        1.671725    1.548381   -0.000111
     14          7           0        2.752904   -0.532682    0.000019
     15          1           0        2.540808   -1.524513    0.000087
     16          6           0        4.407050   -0.316139   -0.000006
     17          1           0        4.764252   -0.794031   -0.913115
     18          1           0        4.578777    0.761585   -0.000048
     19          1           0        4.764266   -0.793962    0.913133
 ---------------------------------------------------------------------
 Rotational constants (GHZ):      5.0697621      0.5125471      0.4697425
 Leave Link  202 at Wed Sep  3 14:23:30 2025, MaxMem=  8053063680 cpu:         0.0
 (Enter /nexus/posix0/bmm/home/sucerqdl/sw/g09/l601.exe)
 Copying SCF densities to generalized density rwf, IOpCl= 0 IROHF=0.

 **********************************************************************

            Population analysis using the SCF density.

 **********************************************************************

 Orbital symmetries:
       Occupied  (A) (A) (A) (A) (A) (A) (A) (A) (A) (A) (A) (A)
                 (A) (A) (A) (A) (A) (A) (A) (A) (A) (A) (A) (A)
                 (A) (A) (A) (A) (A) (A) (A) (A) (A) (A) (A)
       Virtual   (A) (A) (A) (A) (A) (A) (A) (A) (A) (A) (A) (A)
                 (A) (A) (A) (A) (A) (A) (A) (A) (A) (A) (A) (A)
                 (A) (A) (A) (A) (A) (A) (A) (A) (A) (A) (A) (A)
                 (A) (A) (A) (A) (A) (A) (A) (A) (A) (A) (A) (A)
                 (A) (A) (A) (A) (A) (A) (A) (A) (A) (A) (A) (A)
                 (A) (A) (A) (A) (A) (A) (A) (A) (A) (A) (A) (A)
                 (A) (A) (A) (A) (A) (A) (A) (A) (A) (A) (A) (A)
                 (A) (A) (A) (A) (A) (A) (A) (A) (A) (A) (A) (A)
                 (A) (A) (A) (A) (A) (A)
 The electronic state is 1-A.
 Alpha  occ. eigenvalues --  -19.54039 -19.52571 -14.72497 -14.71854 -10.63315
 Alpha  occ. eigenvalues --  -10.61934 -10.55084 -10.54511 -10.50393  -1.15071
 Alpha  occ. eigenvalues --   -1.13851  -0.97803  -0.97046  -0.80681  -0.78477
 Alpha  occ. eigenvalues --   -0.76446  -0.63665  -0.62986  -0.57040  -0.52129
 Alpha  occ. eigenvalues --   -0.51726  -0.50871  -0.50460  -0.48690  -0.48268
 Alpha  occ. eigenvalues --   -0.48047  -0.46025  -0.44187  -0.44116  -0.42623
 Alpha  occ. eigenvalues --   -0.41342  -0.31173  -0.30688  -0.29405  -0.29318
 Alpha virt. eigenvalues --    0.02120   0.03372   0.03396   0.03971   0.04302
 Alpha virt. eigenvalues --    0.06635   0.07138   0.07418   0.08041   0.08566
 Alpha virt. eigenvalues --    0.09111   0.10140   0.10998   0.11629   0.11859
 Alpha virt. eigenvalues --    0.12406   0.13057   0.13622   0.15365   0.16052
 Alpha virt. eigenvalues --    0.16390   0.17327   0.18366   0.19443   0.20689
 Alpha virt. eigenvalues --    0.20834   0.22189   0.22559   0.22991   0.23748
 Alpha virt. eigenvalues --    0.24073   0.24952   0.26839   0.27272   0.27668
 Alpha virt. eigenvalues --    0.27833   0.29032   0.29698   0.31099   0.31571
 Alpha virt. eigenvalues --    0.31954   0.33292   0.34452   0.36031   0.36312
 Alpha virt. eigenvalues --    0.36422   0.37020   0.38859   0.40146   0.40722
 Alpha virt. eigenvalues --    0.42801   0.44884   0.46278   0.47099   0.52430
 Alpha virt. eigenvalues --    0.55871   0.65835   0.68600   0.69458   0.70173
 Alpha virt. eigenvalues --    0.70795   0.73996   0.77273   0.78910   0.80771
 Alpha virt. eigenvalues --    0.82605   0.84600   0.85990   0.91778   0.93673
 Alpha virt. eigenvalues --    0.99001   1.00429   1.01573   1.02165   1.10459
 Alpha virt. eigenvalues --    1.11822   1.11959   1.12764   1.13087   1.15380
 Alpha virt. eigenvalues --    1.16098   1.18767   1.22249   1.22866   1.25167
 Alpha virt. eigenvalues --    1.28648   1.32821   1.33856   1.36272   1.36351
 Alpha virt. eigenvalues --    1.41421   1.43128   1.45752   1.49079   1.51130
 Alpha virt. eigenvalues --    1.53741   1.55747   1.58943   1.66491   1.83022
 Alpha virt. eigenvalues --    2.01080   2.10567
          Condensed to atoms (all electrons):
               1          2          3          4          5          6
     1  C    6.133210   0.335893   0.402275   0.402275  -0.162408  -0.138910
     2  H    0.335893   0.526355  -0.025738  -0.025738  -0.018805   0.006450
     3  H    0.402275  -0.025738   0.467713  -0.022207  -0.046233  -0.002979
     4  H    0.402275  -0.025738  -0.022207   0.467713  -0.046232  -0.002979
     5  C   -0.162408  -0.018805  -0.046233  -0.046232   5.576745   0.423705
     6  O   -0.138910   0.006450  -0.002979  -0.002979   0.423705   8.480483
     7  N   -0.201923   0.004953   0.000348   0.000348  -0.069743  -0.219412
     8  H    0.009905  -0.000247   0.000006   0.000006   0.023305   0.006706
     9  C   -0.126258   0.001010  -0.003138  -0.003138  -0.658274  -0.041575
    10  H   -0.001561   0.000000   0.000007  -0.000002   0.001036   0.000891
    11  H   -0.001561   0.000000  -0.000002   0.000007   0.001036   0.000891
    12  C    0.047183  -0.000163  -0.000240  -0.000240   0.340165   0.013568
    13  O   -0.001470  -0.000001   0.000000   0.000000   0.004657  -0.000174
    14  N   -0.000523   0.000003   0.000000   0.000000   0.006038  -0.001624
    15  H    0.000068   0.000000   0.000000   0.000000   0.001992   0.000069
    16  C    0.000134   0.000000   0.000000   0.000000   0.002893  -0.000093
    17  H    0.000000   0.000000   0.000000   0.000000   0.000023   0.000000
    18  H   -0.000001   0.000000   0.000000   0.000000  -0.000030   0.000000
    19  H    0.000000   0.000000   0.000000   0.000000   0.000023   0.000000
               7          8          9         10         11         12
     1  C   -0.201923   0.009905  -0.126258  -0.001561  -0.001561   0.047183
     2  H    0.004953  -0.000247   0.001010   0.000000   0.000000  -0.000163
     3  H    0.000348   0.000006  -0.003138   0.000007  -0.000002  -0.000240
     4  H    0.000348   0.000006  -0.003138  -0.000002   0.000007  -0.000240
     5  C   -0.069743   0.023305  -0.658274   0.001036   0.001036   0.340165
     6  O   -0.219412   0.006706  -0.041575   0.000891   0.000891   0.013568
     7  N    7.644100   0.257690   0.259950  -0.048513  -0.048513  -0.039031
     8  H    0.257690   0.321749  -0.047662   0.001705   0.001705   0.014853
     9  C    0.259950  -0.047662  10.114933   0.336654   0.336652  -2.923822
    10  H   -0.048513   0.001705   0.336654   0.498332  -0.036831  -0.004201
    11  H   -0.048513   0.001705   0.336652  -0.036831   0.498332  -0.004199
    12  C   -0.039031   0.014853  -2.923822  -0.004201  -0.004199   7.234393
    13  O    0.021013   0.002971   0.029473   0.001080   0.001080   0.244598
    14  N    0.012798   0.001711  -0.673500   0.014497   0.014498   0.491060
    15  H   -0.000022  -0.000003   0.057129  -0.000543  -0.000543  -0.048452
    16  C    0.002434   0.000360  -0.150426   0.002031   0.002031   0.003918
    17  H   -0.000013   0.000000   0.004029   0.000006  -0.000001  -0.002534
    18  H   -0.000010   0.000000  -0.008659  -0.000002  -0.000002  -0.007887
    19  H   -0.000013   0.000000   0.004029  -0.000001   0.000006  -0.002534
              13         14         15         16         17         18
     1  C   -0.001470  -0.000523   0.000068   0.000134   0.000000  -0.000001
     2  H   -0.000001   0.000003   0.000000   0.000000   0.000000   0.000000
     3  H    0.000000   0.000000   0.000000   0.000000   0.000000   0.000000
     4  H    0.000000   0.000000   0.000000   0.000000   0.000000   0.000000
     5  C    0.004657   0.006038   0.001992   0.002893   0.000023  -0.000030
     6  O   -0.000174  -0.001624   0.000069  -0.000093   0.000000   0.000000
     7  N    0.021013   0.012798  -0.000022   0.002434  -0.000013  -0.000010
     8  H    0.002971   0.001711  -0.000003   0.000360   0.000000   0.000000
     9  C    0.029473  -0.673500   0.057129  -0.150426   0.004029  -0.008659
    10  H    0.001080   0.014497  -0.000543   0.002031   0.000006  -0.000002
    11  H    0.001080   0.014498  -0.000543   0.002031  -0.000001  -0.000002
    12  C    0.244598   0.491060  -0.048452   0.003918  -0.002534  -0.007887
    13  O    8.466715  -0.210929   0.009863  -0.023820  -0.000035   0.004700
    14  N   -0.210929   7.573986   0.259077   0.184740  -0.038721  -0.035660
    15  H    0.009863   0.259077   0.399077  -0.028375  -0.000804   0.002156
    16  C   -0.023820   0.184740  -0.028375   5.235683   0.382769   0.403264
    17  H   -0.000035  -0.038721  -0.000804   0.382769   0.497924  -0.022663
    18  H    0.004700  -0.035660   0.002156   0.403264  -0.022663   0.445887
    19  H   -0.000035  -0.038720  -0.000804   0.382768  -0.033032  -0.022663
              19
     1  C    0.000000
     2  H    0.000000
     3  H    0.000000
     4  H    0.000000
     5  C    0.000023
     6  O    0.000000
     7  N   -0.000013
     8  H    0.000000
     9  C    0.004029
    10  H   -0.000001
    11  H    0.000006
    12  C   -0.002534
    13  O   -0.000035
    14  N   -0.038720
    15  H   -0.000804
    16  C    0.382768
    17  H   -0.033032
    18  H   -0.022663
    19  H    0.497924
 Mulliken charges:
               1
     1  C   -0.696331
     2  H    0.196026
     3  H    0.230188
     4  H    0.230188
     5  C    0.620106
     6  O   -0.525016
     7  N   -0.576442
     8  H    0.405240
     9  C   -0.507408
    10  H    0.235414
    11  H    0.235414
    12  C    0.643566
    13  O   -0.549687
    14  N   -0.558731
    15  H    0.350115
    16  C   -0.400311
    17  H    0.213052
    18  H    0.241568
    19  H    0.213051
 Sum of Mulliken charges =   0.00000
 Mulliken charges with hydrogens summed into heavy atoms:
               1
     1  C   -0.039929
     5  C    0.620106
     6  O   -0.525016
     7  N   -0.171202
     9  C   -0.036581
    12  C    0.643566
    13  O   -0.549687
    14  N   -0.208616
    16  C    0.267360
 Electronic spatial extent (au):  <R**2>=           2312.7304
 Charge=              0.0000 electrons
 Dipole moment (field-independent basis, Debye):
    X=              2.7420    Y=             -0.6595    Z=              0.0000  Tot=              2.8202
 Quadrupole moment (field-independent basis, Debye-Ang):
   XX=            -35.9489   YY=            -61.7038   ZZ=            -55.5394
   XY=            -18.7223   XZ=              0.0011   YZ=              0.0005
 Traceless Quadrupole moment (field-independent basis, Debye-Ang):
   XX=             15.1151   YY=            -10.6397   ZZ=             -4.4754
   XY=            -18.7223   XZ=              0.0011   YZ=              0.0005
 Octapole moment (field-independent basis, Debye-Ang**2):
  XXX=             61.9143  YYY=             -1.3777  ZZZ=              0.0004  XYY=              9.9661
  XXY=              8.7176  XXZ=             -0.0008  XZZ=             -0.8206  YZZ=             -2.3707
  YYZ=             -0.0002  XYZ=             -0.0008
 Hexadecapole moment (field-independent basis, Debye-Ang**3):
 XXXX=          -2118.3118 YYYY=           -303.5413 ZZZZ=            -75.2837 XXXY=           -115.3529
 XXXZ=              0.0123 YYYX=            -56.0994 YYYZ=              0.0079 ZZZX=              0.0068
 ZZZY=              0.0069 XXYY=           -527.6379 XXZZ=           -447.0400 YYZZ=            -61.2697
 XXYZ=              0.0058 YYXZ=              0.0073 ZZXY=              3.5432
 N-N= 4.124564652933D+02 E-N=-1.889218516653D+03  KE= 4.522253242975D+02
 No NMR shielding tensors so no spin-rotation constants.
 Leave Link  601 at Wed Sep  3 14:23:30 2025, MaxMem=  8053063680 cpu:         1.3
 (Enter /nexus/posix0/bmm/home/sucerqdl/sw/g09/l9999.exe)
 1\1\GINC-SLURM-ORBIT-CPU1\FOpt\RBMK\6-31+G\C5H10N2O2\SUCERQDL\03-Sep-2
 025\0\\#P bmk/6-31+g opt(modredun,calcfc)\\Gaussian input prepared by 
 ASE\\0,1\C,-0.0087554208,-0.0056831146,0.000000053\H,-0.1319588097,1.0
 799374212,-0.0000705058\H,-0.3922398767,-0.4776605398,-0.9059606316\H,
 -0.3922394071,-0.4775408981,0.9060232793\C,1.7030283979,-0.5351188937,
 0.0000329592\O,1.7662420214,-1.7729812138,0.0001104139\N,2.9552492809,
 0.1899590695,-0.0000127852\H,2.9656720574,1.2023646243,-0.0000795417\C
 ,4.3592135208,-0.5247756739,0.0000300111\H,4.3754264336,-1.1719947218,
 -0.8860761186\H,4.3754257106,-1.1718897512,0.886212753\C,5.8123614968,
 0.3377754829,-0.0000225649\O,5.7680536971,1.5699751138,-0.0001030984\N
 ,7.0529383086,-0.3918715538,0.0000267019\H,6.9416111391,-1.3999984739,
 0.0000942867\C,8.6769398641,-0.0101565109,0.0000014127\H,9.0803687735,
 -0.4497237273,-0.9131070361\H,8.7394686102,1.0793703175,-0.0000405438\
 H,9.0803760855,-0.4496535497,0.9131403324\\Version=ES64L-G09RevD.01\St
 ate=1-A\HF=-456.0517248\RMSD=6.806e-09\RMSF=1.405e-02\Dipole=1.0994058
 ,-0.1497188,0.000011\Quadrupole=13.8283585,-10.5010402,-3.3273183,-11.
 7233239,0.000765,0.0004477\PG=C01 [X(C5H10N2O2)]\\@


 THE CHYMISTS ARE A STRANGE CLASS OF MORTALS IMPELLED
 BY AN ALMOST INSANE IMPULSE TO SEEK THEIR PLEASURE
 AMONG SMOKE AND VAPOR, SOOT AND FLAME, POISONS AND
 POVERTY; YET AMONG ALL THESE EVILS I SEEM TO LIVE
 SO SWEETLY, THAT I MAY DIE IF I WOULD CHANGE PLACES
 WITH THE PERSIAN KING.
   --  JOHANN JOACHIM BECHER, 1635-1682
 ACTA LABORATORII CHYMICA MONACENSIS, 1669
 Job cpu time:       0 days  0 hours 10 minutes 33.5 seconds.
 File lengths (MBytes):  RWF=    132 Int=      0 D2E=      0 Chk=      3 Scr=      2
 Normal termination of Gaussian 09 at Wed Sep  3 14:23:30 2025.
