Gaussian input prepared by ASE                                          
FOpt      RBMK                                                        6-31+G              
Number of atoms                            I               19
Info1-9                                    I   N=           9
          30          30           0           0           0         110
           2          18        -402
Full Title                                 C   N=           3
Gaussian input prepared by ASE      
Route                                      C   N=           3
#P bmk/6-31+g opt(modredun,calcfc)  
Charge                                     I                0
Multiplicity                               I                1
Number of electrons                        I               70
Number of alpha electrons                  I               35
Number of beta electrons                   I               35
Number of basis functions                  I              137
Number of independent functions            I              137
Number of point charges in /Mol/           I                0
Number of translation vectors              I                0
Atomic numbers                             I   N=          19
           6           1           1           1           6           8
           7           1           6           1           1           6
           8           7           1           6           1           1
           1
Nuclear charges                            R   N=          19
  6.00000000E+00  1.00000000E+00  1.00000000E+00  1.00000000E+00  6.00000000E+00
  8.00000000E+00  7.00000000E+00  1.00000000E+00  6.00000000E+00  1.00000000E+00
  1.00000000E+00  6.00000000E+00  8.00000000E+00  7.00000000E+00  1.00000000E+00
  6.00000000E+00  1.00000000E+00  1.00000000E+00  1.00000000E+00
Current cartesian coordinates              R   N=          57
 -8.25167059E+00  1.04518484E+00 -9.97452384E-06 -8.32975641E+00  3.10581320E+00
 -1.27702623E-04 -8.96922621E+00  1.72198458E-01 -1.72192351E+00 -8.96920438E+00
  1.72398284E-01  1.72201387E+00 -4.91093810E+00 -2.54523641E-01  4.67687751E-05
 -5.05071833E+00 -2.58566044E+00  1.88778699E-04 -2.40000200E+00  8.63780577E-01
 -3.70554244E-05 -2.19641061E+00  2.76604191E+00 -1.61036592E-04  1.35129219E-01
 -7.41925751E-01  4.42279948E-05  4.59309588E-02 -1.95675677E+00 -1.67727846E+00
  4.59510752E-02 -1.95655480E+00  1.67751424E+00  3.07036435E+00  6.07773551E-01
 -5.88941297E-05  3.21335015E+00  2.93110320E+00 -2.16615449E-04  5.28170974E+00
 -9.94546441E-01  3.72739258E-05  4.88684952E+00 -2.87060481E+00  1.70579315E-04
  8.45878422E+00 -6.02925068E-01 -1.09955650E-05  9.10676390E+00 -1.51710259E+00
 -1.72888794E+00  8.78928931E+00  1.43183817E+00 -9.95226293E-05  9.10678956E+00
 -1.51695572E+00  1.72893386E+00
Number of symbols in /Mol/                 I                0
Redundant internal dimensions              I   N=           4
          81          19          30          32
Redundant internal coordinate indices      I   N=         324
           1           2           0           0           1           3
           0           0           1           4           0           0
           1           5           0           0           1          16
           0           0           5           6           0           0
           5           7           0           0           7           8
           0           0           7           9           0           0
           9          10           0           0           9          11
           0           0           9          12           0           0
          12          13           0           0          12          14
           0           0          14          15           0           0
          14          16           0           0          16          17
           0           0          16          18           0           0
          16          19           0           0           2           1
           3           0           2           1           4           0
           2           1           5           0           3           1
           4           0           3           1           5           0
           4           1           5           0           1           5
           6           0           1           5           7           0
           6           5           7           0           5           7
           8           0           5           7           9           0
           8           7           9           0           7           9
          10           0           7           9          11           0
           7           9          12           0          10           9
          11           0          10           9          12           0
          11           9          12           0           9          12
          13           0           9          12          14           0
          13          12          14           0          12          14
          15           0          12          14          16           0
          15          14          16           0          14          16
          17           0          14          16          18           0
          14          16          19           0          17          16
          18           0          17          16          19           0
          18          16          19           0           2           1
           5           6           2           1           5           7
           3           1           5           6           3           1
           5           7           4           1           5           6
           4           1           5           7           1           5
           7           8           1           5           7           9
           6           5           7           8           6           5
           7           9           5           7           9          10
           5           7           9          11           5           7
           9          12           8           7           9          10
           8           7           9          11           8           7
           9          12           7           9          12          13
           7           9          12          14          10           9
          12          13          10           9          12          14
          11           9          12          13          11           9
          12          14           9          12          14          15
           9          12          14          16          13          12
          14          15          13          12          14          16
          12          14          16          17          12          14
          16          18          12          14          16          19
          15          14          16          17          15          14
          16          18          15          14          16          19
Redundant internal coordinates             R   N=          81
  2.06210732E+00  2.05960616E+00  2.05960609E+00  3.58465280E+00  1.67915326E+01
  2.33532381E+00  2.74870960E+00  1.91312510E+00  3.00086372E+00  2.07296457E+00
  2.07296457E+00  3.23068004E+00  2.32772542E+00  2.73083829E+00  1.91716186E+00
  3.20112005E+00  2.06024603E+00  2.06143034E+00  2.06024592E+00  1.99359736E+00
  1.99359619E+00  1.97970271E+00  1.98014950E+00  1.74266050E+00  1.74265932E+00
  1.88193610E+00  2.35156252E+00  2.04968669E+00  2.09641626E+00  2.15798876E+00
  2.02878029E+00  1.85167878E+00  1.85167868E+00  2.14599292E+00  1.88550194E+00
  1.85865520E+00  1.85865742E+00  2.06325793E+00  2.08355724E+00  2.13637014E+00
  1.99039062E+00  2.39190678E+00  1.90088790E+00  1.83162503E+00  1.85446542E+00
  1.83162067E+00  1.96873693E+00  1.99153613E+00  1.96873665E+00  3.14158923E+00
 -3.25125444E-06 -1.01327575E+00  2.12831708E+00  1.01327103E+00 -2.12832145E+00
 -4.73158212E-06  3.14159232E+00  3.14158811E+00 -1.46759418E-07  1.00131717E+00
 -1.00131601E+00  3.14159171E+00 -2.14027124E+00  2.14028089E+00  3.29733439E-06
 -6.79290317E-06  3.14158725E+00  2.13707148E+00 -1.00451979E+00 -2.13708705E+00
  1.00450699E+00 -3.97148794E-06  3.14158916E+00  3.14159013E+00 -2.05214473E-06
 -2.08928946E+00  2.75406356E-05  2.08934208E+00  1.05230366E+00 -3.14156466E+00
 -1.05225011E+00
ZRed-IntVec                                I   N=          81
           0           0           0           0          -1           0
           0           0           0           0           0           0
           0           0           0           0           0           0
           0           0           0           0           0           0
           0           0           0           0           0           0
           0           0           0           0           0           0
           0           0           0           0           0           0
           0           0           0           0           0           0
           0           0           0           0           0           0
           0           0           0           0           0           0
           0           0           0           0           0           0
           0           0           0           0           0           0
           0           0           0           0           0           0
           0           0           0
ZRed-FPVec                                 R   N=          81
  0.00000000E+00  0.00000000E+00  0.00000000E+00  0.00000000E+00  0.00000000E+00
  0.00000000E+00  0.00000000E+00  0.00000000E+00  0.00000000E+00  0.00000000E+00
  0.00000000E+00  0.00000000E+00  0.00000000E+00  0.00000000E+00  0.00000000E+00
  0.00000000E+00  0.00000000E+00  0.00000000E+00  0.00000000E+00  0.00000000E+00
  0.00000000E+00  0.00000000E+00  0.00000000E+00  0.00000000E+00  0.00000000E+00
  0.00000000E+00  0.00000000E+00  0.00000000E+00  0.00000000E+00  0.00000000E+00
  0.00000000E+00  0.00000000E+00  0.00000000E+00  0.00000000E+00  0.00000000E+00
  0.00000000E+00  0.00000000E+00  0.00000000E+00  0.00000000E+00  0.00000000E+00
  0.00000000E+00  0.00000000E+00  0.00000000E+00  0.00000000E+00  0.00000000E+00
  0.00000000E+00  0.00000000E+00  0.00000000E+00  0.00000000E+00  0.00000000E+00
  0.00000000E+00  0.00000000E+00  0.00000000E+00  0.00000000E+00  0.00000000E+00
  0.00000000E+00  0.00000000E+00  0.00000000E+00  0.00000000E+00  0.00000000E+00
  0.00000000E+00  0.00000000E+00  0.00000000E+00  0.00000000E+00  0.00000000E+00
  0.00000000E+00  0.00000000E+00  0.00000000E+00  0.00000000E+00  0.00000000E+00
  0.00000000E+00  0.00000000E+00  0.00000000E+00  0.00000000E+00  0.00000000E+00
  0.00000000E+00  0.00000000E+00  0.00000000E+00  0.00000000E+00  0.00000000E+00
  0.00000000E+00
ZRed-Constraint1                           R   N=          81
  2.06531071E+00  2.06787172E+00  2.06787438E+00  3.45724155E+00  1.67915327E+01
  2.34241360E+00  2.78168458E+00  1.91327581E+00  3.03171728E+00  2.07384177E+00
  2.07384282E+00  3.24787762E+00  2.33009744E+00  2.76646544E+00  1.91719716E+00
  3.22136906E+00  2.06778889E+00  2.06245065E+00  2.06778813E+00  1.96820599E+00
  1.96820272E+00  1.97999095E+00  1.95085225E+00  1.79093381E+00  1.79093534E+00
  1.91660382E+00  2.33295327E+00  2.03362822E+00  2.09635466E+00  2.16480131E+00
  2.02202934E+00  1.85070098E+00  1.85070132E+00  2.15410224E+00  1.87970942E+00
  1.85757937E+00  1.85758076E+00  2.05975283E+00  2.09407970E+00  2.12935278E+00
  1.98008799E+00  2.39399192E+00  1.90910540E+00  1.85216303E+00  1.85525478E+00
  1.85215923E+00  1.95939732E+00  1.97442275E+00  1.95939739E+00 -3.14159105E+00
  1.56979331E-06 -1.01298163E+00  2.12861099E+00  1.01298781E+00 -2.12860488E+00
 -2.46703113E-06 -3.14159134E+00  3.14159015E+00  1.28349091E-06  9.97600328E-01
 -9.97594274E-01 -3.14159078E+00 -2.14398869E+00  2.14400202E+00  5.51330882E-06
 -6.23500981E-06  3.14158863E+00  2.14087451E+00 -1.00071593E+00 -2.14088881E+00
  1.00070606E+00 -4.30065686E-06  3.14158922E+00  3.14159066E+00 -1.12560496E-06
 -2.08909297E+00  2.92432773E-05  2.08914963E+00  1.05250053E+00 -3.14156257E+00
 -1.05244218E+00
ZRed-Constraint2                           R   N=          81
  0.00000000E+00  0.00000000E+00  0.00000000E+00  0.00000000E+00  1.67915327E+01
  0.00000000E+00  0.00000000E+00  0.00000000E+00  0.00000000E+00  0.00000000E+00
  0.00000000E+00  0.00000000E+00  0.00000000E+00  0.00000000E+00  0.00000000E+00
  0.00000000E+00  0.00000000E+00  0.00000000E+00  0.00000000E+00  0.00000000E+00
  0.00000000E+00  0.00000000E+00  0.00000000E+00  0.00000000E+00  0.00000000E+00
  0.00000000E+00  0.00000000E+00  0.00000000E+00  0.00000000E+00  0.00000000E+00
  0.00000000E+00  0.00000000E+00  0.00000000E+00  0.00000000E+00  0.00000000E+00
  0.00000000E+00  0.00000000E+00  0.00000000E+00  0.00000000E+00  0.00000000E+00
  0.00000000E+00  0.00000000E+00  0.00000000E+00  0.00000000E+00  0.00000000E+00
  0.00000000E+00  0.00000000E+00  0.00000000E+00  0.00000000E+00  0.00000000E+00
  0.00000000E+00  0.00000000E+00  0.00000000E+00  0.00000000E+00  0.00000000E+00
  0.00000000E+00  0.00000000E+00  0.00000000E+00  0.00000000E+00  0.00000000E+00
  0.00000000E+00  0.00000000E+00  0.00000000E+00  0.00000000E+00  0.00000000E+00
  0.00000000E+00  0.00000000E+00  0.00000000E+00  0.00000000E+00  0.00000000E+00
  0.00000000E+00  0.00000000E+00  0.00000000E+00  0.00000000E+00  0.00000000E+00
  0.00000000E+00  0.00000000E+00  0.00000000E+00  0.00000000E+00  0.00000000E+00
  0.00000000E+00
Force Field                                I                0
Atom Types                                 C   N=          19
                                                            
                                                            
                                                            
                                                
Int Atom Types                             I   N=          19
           0           0           0           0           0           0
           0           0           0           0           0           0
           0           0           0           0           0           0
           0
MM charges                                 R   N=          19
  0.00000000E+00  0.00000000E+00  0.00000000E+00  0.00000000E+00  0.00000000E+00
  0.00000000E+00  0.00000000E+00  0.00000000E+00  0.00000000E+00  0.00000000E+00
  0.00000000E+00  0.00000000E+00  0.00000000E+00  0.00000000E+00  0.00000000E+00
  0.00000000E+00  0.00000000E+00  0.00000000E+00  0.00000000E+00
Integer atomic weights                     I   N=          19
          12           1           1           1          12          16
          14           1          12           1           1          12
          16          14           1          12           1           1
           1
Real atomic weights                        R   N=          19
  1.20000000E+01  1.00782504E+00  1.00782504E+00  1.00782504E+00  1.20000000E+01
  1.59949146E+01  1.40030740E+01  1.00782504E+00  1.20000000E+01  1.00782504E+00
  1.00782504E+00  1.20000000E+01  1.59949146E+01  1.40030740E+01  1.00782504E+00
  1.20000000E+01  1.00782504E+00  1.00782504E+00  1.00782504E+00
Atom fragment info                         I   N=          19
           0           0           0           0           0           0
           0           0           0           0           0           0
           0           0           0           0           0           0
           0
Atom residue num                           I   N=          19
           0           0           0           0           0           0
           0           0           0           0           0           0
           0           0           0           0           0           0
           0
Nuclear spins                              I   N=          19
           0           1           1           1           0           0
           2           1           0           1           1           0
           0           2           1           0           1           1
           1
Nuclear ZEff                               R   N=          19
 -3.60000000E+00 -1.00000000E+00 -1.00000000E+00 -1.00000000E+00 -3.60000000E+00
 -5.60000000E+00 -4.55000000E+00 -1.00000000E+00 -3.60000000E+00 -1.00000000E+00
 -1.00000000E+00 -3.60000000E+00 -5.60000000E+00 -4.55000000E+00 -1.00000000E+00
 -3.60000000E+00 -1.00000000E+00 -1.00000000E+00 -1.00000000E+00
Nuclear ZNuc                               R   N=          19
  6.00000000E+00  1.00000000E+00  1.00000000E+00  1.00000000E+00  6.00000000E+00
  8.00000000E+00  7.00000000E+00  1.00000000E+00  6.00000000E+00  1.00000000E+00
  1.00000000E+00  6.00000000E+00  8.00000000E+00  7.00000000E+00  1.00000000E+00
  6.00000000E+00  1.00000000E+00  1.00000000E+00  1.00000000E+00
Nuclear QMom                               R   N=          19
  0.00000000E+00  0.00000000E+00  0.00000000E+00  0.00000000E+00  0.00000000E+00
  0.00000000E+00  2.04400000E+00  0.00000000E+00  0.00000000E+00  0.00000000E+00
  0.00000000E+00  0.00000000E+00  0.00000000E+00  2.04400000E+00  0.00000000E+00
  0.00000000E+00  0.00000000E+00  0.00000000E+00  0.00000000E+00
Nuclear GFac                               R   N=          19
  0.00000000E+00  2.79284600E+00  2.79284600E+00  2.79284600E+00  0.00000000E+00
  0.00000000E+00  4.03761000E-01  2.79284600E+00  0.00000000E+00  2.79284600E+00
  2.79284600E+00  0.00000000E+00  0.00000000E+00  4.03761000E-01  2.79284600E+00
  0.00000000E+00  2.79284600E+00  2.79284600E+00  2.79284600E+00
MicOpt                                     I   N=          19
          -1          -1          -1          -1          -1          -1
          -1          -1          -1          -1          -1          -1
          -1          -1          -1          -1          -1          -1
          -1
Number of residues                         I                0
Number of secondary structures             I                0
Number of contracted shells                I               56
Number of primitive shells                 I              139
Pure/Cartesian d shells                    I                1
Pure/Cartesian f shells                    I                0
Highest angular momentum                   I                1
Largest degree of contraction              I                6
Shell types                                I   N=          56
           0          -1          -1          -1           0           0
           0           0           0           0           0          -1
          -1          -1           0          -1          -1          -1
           0          -1          -1          -1           0           0
           0          -1          -1          -1           0           0
           0           0           0          -1          -1          -1
           0          -1          -1          -1           0          -1
          -1          -1           0           0           0          -1
          -1          -1           0           0           0           0
           0           0
Number of primitives per shell             I   N=          56
           6           3           1           1           3           1
           3           1           3           1           6           3
           1           1           6           3           1           1
           6           3           1           1           3           1
           6           3           1           1           3           1
           3           1           6           3           1           1
           6           3           1           1           6           3
           1           1           3           1           6           3
           1           1           3           1           3           1
           3           1
Shell to atom map                          I   N=          56
           1           1           1           1           2           2
           3           3           4           4           5           5
           5           5           6           6           6           6
           7           7           7           7           8           8
           9           9           9           9          10          10
          11          11          12          12          12          12
          13          13          13          13          14          14
          14          14          15          15          16          16
          16          16          17          17          18          18
          19          19
Primitive exponents                        R   N=         139
  3.04752488E+03  4.57369518E+02  1.03948685E+02  2.92101553E+01  9.28666296E+00
  3.16392696E+00  7.86827235E+00  1.88128854E+00  5.44249258E-01  1.68714478E-01
  4.38000000E-02  1.87311370E+01  2.82539436E+00  6.40121692E-01  1.61277759E-01
  1.87311370E+01  2.82539436E+00  6.40121692E-01  1.61277759E-01  1.87311370E+01
  2.82539436E+00  6.40121692E-01  1.61277759E-01  3.04752488E+03  4.57369518E+02
  1.03948685E+02  2.92101553E+01  9.28666296E+00  3.16392696E+00  7.86827235E+00
  1.88128854E+00  5.44249258E-01  1.68714478E-01  4.38000000E-02  5.48467166E+03
  8.25234946E+02  1.88046958E+02  5.29645000E+01  1.68975704E+01  5.79963534E+00
  1.55396162E+01  3.59993359E+00  1.01376175E+00  2.70005823E-01  8.45000000E-02
  4.17351146E+03  6.27457911E+02  1.42902093E+02  4.02343293E+01  1.28202129E+01
  4.39043701E+00  1.16263619E+01  2.71627981E+00  7.72218397E-01  2.12031498E-01
  6.39000000E-02  1.87311370E+01  2.82539436E+00  6.40121692E-01  1.61277759E-01
  3.04752488E+03  4.57369518E+02  1.03948685E+02  2.92101553E+01  9.28666296E+00
  3.16392696E+00  7.86827235E+00  1.88128854E+00  5.44249258E-01  1.68714478E-01
  4.38000000E-02  1.87311370E+01  2.82539436E+00  6.40121692E-01  1.61277759E-01
  1.87311370E+01  2.82539436E+00  6.40121692E-01  1.61277759E-01  3.04752488E+03
  4.57369518E+02  1.03948685E+02  2.92101553E+01  9.28666296E+00  3.16392696E+00
  7.86827235E+00  1.88128854E+00  5.44249258E-01  1.68714478E-01  4.38000000E-02
  5.48467166E+03  8.25234946E+02  1.88046958E+02  5.29645000E+01  1.68975704E+01
  5.79963534E+00  1.55396162E+01  3.59993359E+00  1.01376175E+00  2.70005823E-01
  8.45000000E-02  4.17351146E+03  6.27457911E+02  1.42902093E+02  4.02343293E+01
  1.28202129E+01  4.39043701E+00  1.16263619E+01  2.71627981E+00  7.72218397E-01
  2.12031498E-01  6.39000000E-02  1.87311370E+01  2.82539436E+00  6.40121692E-01
  1.61277759E-01  3.04752488E+03  4.57369518E+02  1.03948685E+02  2.92101553E+01
  9.28666296E+00  3.16392696E+00  7.86827235E+00  1.88128854E+00  5.44249258E-01
  1.68714478E-01  4.38000000E-02  1.87311370E+01  2.82539436E+00  6.40121692E-01
  1.61277759E-01  1.87311370E+01  2.82539436E+00  6.40121692E-01  1.61277759E-01
  1.87311370E+01  2.82539436E+00  6.40121692E-01  1.61277759E-01
Contraction coefficients                   R   N=         139
  1.83473713E-03  1.40373228E-02  6.88426223E-02  2.32184443E-01  4.67941348E-01
  3.62311985E-01 -1.19332420E-01 -1.60854152E-01  1.14345644E+00  1.00000000E+00
  1.00000000E+00  3.34946043E-02  2.34726953E-01  8.13757326E-01  1.00000000E+00
  3.34946043E-02  2.34726953E-01  8.13757326E-01  1.00000000E+00  3.34946043E-02
  2.34726953E-01  8.13757326E-01  1.00000000E+00  1.83473713E-03  1.40373228E-02
  6.88426223E-02  2.32184443E-01  4.67941348E-01  3.62311985E-01 -1.19332420E-01
 -1.60854152E-01  1.14345644E+00  1.00000000E+00  1.00000000E+00  1.83107443E-03
  1.39501722E-02  6.84450781E-02  2.32714336E-01  4.70192898E-01  3.58520853E-01
 -1.10777550E-01 -1.48026263E-01  1.13076702E+00  1.00000000E+00  1.00000000E+00
  1.83477216E-03  1.39946270E-02  6.85865518E-02  2.32240873E-01  4.69069948E-01
  3.60455199E-01 -1.14961182E-01 -1.69117479E-01  1.14585195E+00  1.00000000E+00
  1.00000000E+00  3.34946043E-02  2.34726953E-01  8.13757326E-01  1.00000000E+00
  1.83473713E-03  1.40373228E-02  6.88426223E-02  2.32184443E-01  4.67941348E-01
  3.62311985E-01 -1.19332420E-01 -1.60854152E-01  1.14345644E+00  1.00000000E+00
  1.00000000E+00  3.34946043E-02  2.34726953E-01  8.13757326E-01  1.00000000E+00
  3.34946043E-02  2.34726953E-01  8.13757326E-01  1.00000000E+00  1.83473713E-03
  1.40373228E-02  6.88426223E-02  2.32184443E-01  4.67941348E-01  3.62311985E-01
 -1.19332420E-01 -1.60854152E-01  1.14345644E+00  1.00000000E+00  1.00000000E+00
  1.83107443E-03  1.39501722E-02  6.84450781E-02  2.32714336E-01  4.70192898E-01
  3.58520853E-01 -1.10777550E-01 -1.48026263E-01  1.13076702E+00  1.00000000E+00
  1.00000000E+00  1.83477216E-03  1.39946270E-02  6.85865518E-02  2.32240873E-01
  4.69069948E-01  3.60455199E-01 -1.14961182E-01 -1.69117479E-01  1.14585195E+00
  1.00000000E+00  1.00000000E+00  3.34946043E-02  2.34726953E-01  8.13757326E-01
  1.00000000E+00  1.83473713E-03  1.40373228E-02  6.88426223E-02  2.32184443E-01
  4.67941348E-01  3.62311985E-01 -1.19332420E-01 -1.60854152E-01  1.14345644E+00
  1.00000000E+00  1.00000000E+00  3.34946043E-02  2.34726953E-01  8.13757326E-01
  1.00000000E+00  3.34946043E-02  2.34726953E-01  8.13757326E-01  1.00000000E+00
  3.34946043E-02  2.34726953E-01  8.13757326E-01  1.00000000E+00
P(S=P) Contraction coefficients            R   N=         139
  0.00000000E+00  0.00000000E+00  0.00000000E+00  0.00000000E+00  0.00000000E+00
  0.00000000E+00  6.89990666E-02  3.16423961E-01  7.44308291E-01  1.00000000E+00
  1.00000000E+00  0.00000000E+00  0.00000000E+00  0.00000000E+00  0.00000000E+00
  0.00000000E+00  0.00000000E+00  0.00000000E+00  0.00000000E+00  0.00000000E+00
  0.00000000E+00  0.00000000E+00  0.00000000E+00  0.00000000E+00  0.00000000E+00
  0.00000000E+00  0.00000000E+00  0.00000000E+00  0.00000000E+00  6.89990666E-02
  3.16423961E-01  7.44308291E-01  1.00000000E+00  1.00000000E+00  0.00000000E+00
  0.00000000E+00  0.00000000E+00  0.00000000E+00  0.00000000E+00  0.00000000E+00
  7.08742682E-02  3.39752839E-01  7.27158577E-01  1.00000000E+00  1.00000000E+00
  0.00000000E+00  0.00000000E+00  0.00000000E+00  0.00000000E+00  0.00000000E+00
  0.00000000E+00  6.75797439E-02  3.23907296E-01  7.40895140E-01  1.00000000E+00
  1.00000000E+00  0.00000000E+00  0.00000000E+00  0.00000000E+00  0.00000000E+00
  0.00000000E+00  0.00000000E+00  0.00000000E+00  0.00000000E+00  0.00000000E+00
  0.00000000E+00  6.89990666E-02  3.16423961E-01  7.44308291E-01  1.00000000E+00
  1.00000000E+00  0.00000000E+00  0.00000000E+00  0.00000000E+00  0.00000000E+00
  0.00000000E+00  0.00000000E+00  0.00000000E+00  0.00000000E+00  0.00000000E+00
  0.00000000E+00  0.00000000E+00  0.00000000E+00  0.00000000E+00  0.00000000E+00
  6.89990666E-02  3.16423961E-01  7.44308291E-01  1.00000000E+00  1.00000000E+00
  0.00000000E+00  0.00000000E+00  0.00000000E+00  0.00000000E+00  0.00000000E+00
  0.00000000E+00  7.08742682E-02  3.39752839E-01  7.27158577E-01  1.00000000E+00
  1.00000000E+00  0.00000000E+00  0.00000000E+00  0.00000000E+00  0.00000000E+00
  0.00000000E+00  0.00000000E+00  6.75797439E-02  3.23907296E-01  7.40895140E-01
  1.00000000E+00  1.00000000E+00  0.00000000E+00  0.00000000E+00  0.00000000E+00
  0.00000000E+00  0.00000000E+00  0.00000000E+00  0.00000000E+00  0.00000000E+00
  0.00000000E+00  0.00000000E+00  6.89990666E-02  3.16423961E-01  7.44308291E-01
  1.00000000E+00  1.00000000E+00  0.00000000E+00  0.00000000E+00  0.00000000E+00
  0.00000000E+00  0.00000000E+00  0.00000000E+00  0.00000000E+00  0.00000000E+00
  0.00000000E+00  0.00000000E+00  0.00000000E+00  0.00000000E+00
Coordinates of each shell                  R   N=         168
 -8.25167059E+00  1.04518484E+00 -9.97452384E-06 -8.25167059E+00  1.04518484E+00
 -9.97452384E-06 -8.25167059E+00  1.04518484E+00 -9.97452384E-06 -8.25167059E+00
  1.04518484E+00 -9.97452384E-06 -8.32975641E+00  3.10581320E+00 -1.27702623E-04
 -8.32975641E+00  3.10581320E+00 -1.27702623E-04 -8.96922621E+00  1.72198458E-01
 -1.72192351E+00 -8.96922621E+00  1.72198458E-01 -1.72192351E+00 -8.96920438E+00
  1.72398284E-01  1.72201387E+00 -8.96920438E+00  1.72398284E-01  1.72201387E+00
 -4.91093810E+00 -2.54523641E-01  4.67687751E-05 -4.91093810E+00 -2.54523641E-01
  4.67687751E-05 -4.91093810E+00 -2.54523641E-01  4.67687751E-05 -4.91093810E+00
 -2.54523641E-01  4.67687751E-05 -5.05071833E+00 -2.58566044E+00  1.88778699E-04
 -5.05071833E+00 -2.58566044E+00  1.88778699E-04 -5.05071833E+00 -2.58566044E+00
  1.88778699E-04 -5.05071833E+00 -2.58566044E+00  1.88778699E-04 -2.40000200E+00
  8.63780577E-01 -3.70554244E-05 -2.40000200E+00  8.63780577E-01 -3.70554244E-05
 -2.40000200E+00  8.63780577E-01 -3.70554244E-05 -2.40000200E+00  8.63780577E-01
 -3.70554244E-05 -2.19641061E+00  2.76604191E+00 -1.61036592E-04 -2.19641061E+00
  2.76604191E+00 -1.61036592E-04  1.35129219E-01 -7.41925751E-01  4.42279948E-05
  1.35129219E-01 -7.41925751E-01  4.42279948E-05  1.35129219E-01 -7.41925751E-01
  4.42279948E-05  1.35129219E-01 -7.41925751E-01  4.42279948E-05  4.59309588E-02
 -1.95675677E+00 -1.67727846E+00  4.59309588E-02 -1.95675677E+00 -1.67727846E+00
  4.59510752E-02 -1.95655480E+00  1.67751424E+00  4.59510752E-02 -1.95655480E+00
  1.67751424E+00  3.07036435E+00  6.07773551E-01 -5.88941297E-05  3.07036435E+00
  6.07773551E-01 -5.88941297E-05  3.07036435E+00  6.07773551E-01 -5.88941297E-05
  3.07036435E+00  6.07773551E-01 -5.88941297E-05  3.21335015E+00  2.93110320E+00
 -2.16615449E-04  3.21335015E+00  2.93110320E+00 -2.16615449E-04  3.21335015E+00
  2.93110320E+00 -2.16615449E-04  3.21335015E+00  2.93110320E+00 -2.16615449E-04
  5.28170974E+00 -9.94546441E-01  3.72739258E-05  5.28170974E+00 -9.94546441E-01
  3.72739258E-05  5.28170974E+00 -9.94546441E-01  3.72739258E-05  5.28170974E+00
 -9.94546441E-01  3.72739258E-05  4.88684952E+00 -2.87060481E+00  1.70579315E-04
  4.88684952E+00 -2.87060481E+00  1.70579315E-04  8.45878422E+00 -6.02925068E-01
 -1.09955650E-05  8.45878422E+00 -6.02925068E-01 -1.09955650E-05  8.45878422E+00