 Entering Gaussian System, Link 0=g09
 Input=G-stretched02.com
 Output=G-stretched02.log
 Initial command:
 /nexus/posix0/bmm/home/sucerqdl/sw/g09/l1.exe "/nexus/posix0/bmm/home/sucerqdl/sw/g09/g09_scratch/Gau-2868661.inp" -scrdir="/nexus/posix0/bmm/home/sucerqdl/sw/g09/g09_scratch/"
 Entering Link 1 = /nexus/posix0/bmm/home/sucerqdl/sw/g09/l1.exe PID=   2868663.
  
 Copyright (c) 1988,1990,1992,1993,1995,1998,2003,2009,2013,
            Gaussian, Inc.  All Rights Reserved.
  
 This is part of the Gaussian(R) 09 program.  It is based on
 the Gaussian(R) 03 system (copyright 2003, Gaussian, Inc.),
 the Gaussian(R) 98 system (copyright 1998, Gaussian, Inc.),
 the Gaussian(R) 94 system (copyright 1995, Gaussian, Inc.),
 the Gaussian 92(TM) system (copyright 1992, Gaussian, Inc.),
 the Gaussian 90(TM) system (copyright 1990, Gaussian, Inc.),
 the Gaussian 88(TM) system (copyright 1988, Gaussian, Inc.),
 the Gaussian 86(TM) system (copyright 1986, Carnegie Mellon
 University), and the Gaussian 82(TM) system (copyright 1983,
 Carnegie Mellon University). Gaussian is a federally registered
 trademark of Gaussian, Inc.
  
 This software contains proprietary and confidential information,
 including trade secrets, belonging to Gaussian, Inc.
  
 This software is provided under written license and may be
 used, copied, transmitted, or stored only in accord with that
 written license.
  
 The following legend is applicable only to US Government
 contracts under FAR:
  
                    RESTRICTED RIGHTS LEGEND
  
 Use, reproduction and disclosure by the US Government is
 subject to restrictions as set forth in subparagraphs (a)
 and (c) of the Commercial Computer Software - Restricted
 Rights clause in FAR 52.227-19.
  
 Gaussian, Inc.
 340 Quinnipiac St., Bldg. 40, Wallingford CT 06492
  
  
 ---------------------------------------------------------------
 Warning -- This program may not be used in any manner that
 competes with the business of Gaussian, Inc. or will provide
 assistance to any competitor of Gaussian, Inc.  The licensee
 of this program is prohibited from giving any competitor of
 Gaussian, Inc. access to this program.  By using this program,
 the user acknowledges that Gaussian, Inc. is engaged in the
 business of creating and licensing software in the field of
 computational chemistry and represents and warrants to the
 licensee that it is not a competitor of Gaussian, Inc. and that
 it will not use this program in any manner prohibited above.
 ---------------------------------------------------------------
  

 Cite this work as:
 Gaussian 09, Revision D.01,
 M. J. Frisch, G. W. Trucks, H. B. Schlegel, G. E. Scuseria, 
 M. A. Robb, J. R. Cheeseman, G. Scalmani, V. Barone, B. Mennucci, 
 G. A. Petersson, H. Nakatsuji, M. Caricato, X. Li, H. P. Hratchian, 
 A. F. Izmaylov, J. Bloino, G. Zheng, J. L. Sonnenberg, M. Hada, 
 M. Ehara, K. Toyota, R. Fukuda, J. Hasegawa, M. Ishida, T. Nakajima, 
 Y. Honda, O. Kitao, H. Nakai, T. Vreven, J. A. Montgomery, Jr., 
 J. E. Peralta, F. Ogliaro, M. Bearpark, J. J. Heyd, E. Brothers, 
 K. N. Kudin, V. N. Staroverov, T. Keith, R. Kobayashi, J. Normand, 
 K. Raghavachari, A. Rendell, J. C. Burant, S. S. Iyengar, J. Tomasi, 
 M. Cossi, N. Rega, J. M. Millam, M. Klene, J. E. Knox, J. B. Cross, 
 V. Bakken, C. Adamo, J. Jaramillo, R. Gomperts, R. E. Stratmann, 
 O. Yazyev, A. J. Austin, R. Cammi, C. Pomelli, J. W. Ochterski, 
 R. L. Martin, K. Morokuma, V. G. Zakrzewski, G. A. Voth, 
 P. Salvador, J. J. Dannenberg, S. Dapprich, A. D. Daniels, 
 O. Farkas, J. B. Foresman, J. V. Ortiz, J. Cioslowski, 
 and D. J. Fox, Gaussian, Inc., Wallingford CT, 2013.
 
 ******************************************
 Gaussian 09:  ES64L-G09RevD.01 24-Apr-2013
                 3-Sep-2025 
 ******************************************
 %mem=60GB
 %NProcShared=16
 Will use up to   16 processors via shared memory.
 %chk=G-stretched02
 ----------------------------------
 #P bmk/6-31+g opt(modredun,calcfc)
 ----------------------------------
 1/10=4,14=-1,18=120,19=15,26=3,38=1/1,3;
 2/9=110,12=2,17=6,18=5,40=1/2;
 3/5=1,6=6,7=10,11=2,16=1,25=1,30=1,71=2,74=-34,140=1/1,2,3;
 4//1;
 5/5=2,38=5/2;
 8/6=4,10=90,11=11/1;
 11/6=1,8=1,9=11,15=111,16=1/1,2,10;
 10/6=1,13=1/2;
 6/7=2,8=2,9=2,10=2,28=1/1;
 7/10=1,18=20,25=1/1,2,3,16;
 1/10=4,14=-1,18=20,19=15,26=3/3(2);
 2/9=110/2;
 99//99;
 2/9=110/2;
 3/5=1,6=6,7=10,11=2,16=1,25=1,30=1,71=1,74=-34/1,2,3;
 4/5=5,16=3,69=1/1;
 5/5=2,38=5/2;
 7//1,2,3,16;
 1/14=-1,18=20,19=15,26=3/3(-5);
 2/9=110/2;
 6/7=2,8=2,9=2,10=2,19=2,28=1/1;
 99/9=1/99;
 Leave Link    1 at Wed Sep  3 14:16:35 2025, MaxMem=  8053063680 cpu:         1.1
 (Enter /nexus/posix0/bmm/home/sucerqdl/sw/g09/l101.exe)
 ------------------------------
 Gaussian input prepared by ASE
 ------------------------------
 Symbolic Z-matrix:
 Charge =  0 Multiplicity = 1
 C                     0.        0.        0. 
 H                     0.18776  -1.08063   0.0002 
 H                    -0.59801   0.27296   0.88756 
 H                    -0.59802   0.27262  -0.88765 
 C                     1.32827   0.82604  -0.00017 
 O                     1.27943   2.07345  -0.00025 
 N                     2.56714   0.17949  -0.00025 
 H                     2.65951  -0.82861  -0.00017 
 C                     3.83807   0.95313  -0.00046 
 H                     3.86347   1.61083   0.88203 
 H                     3.86347   1.6104   -0.88327 
 C                     5.10933   0.03554  -0.00027 
 O                     5.00353  -1.20433  -0.00021 
 N                     6.34217   0.68396  -0.00019 
 H                     6.34268   1.69367  -0.00015 
 C                     7.6857    0.        0. 
 H                     8.49157   0.76086   0.00085 
 H                     7.78652  -0.6337    0.88933 
 H                     7.7875   -0.63262  -0.88999 
 
 The following ModRedundant input section has been read:
 B       1      16 F                                                           
 
 NAtoms=     19 NQM=       19 NQMF=       0 NMMI=      0 NMMIF=      0
                NMic=       0 NMicF=      0.
                    Isotopes and Nuclear Properties:
 (Nuclear quadrupole moments (NQMom) in fm**2, nuclear magnetic moments (NMagM)
  in nuclear magnetons)

  Atom         1           2           3           4           5           6           7           8           9          10
 IAtWgt=          12           1           1           1          12          16          14           1          12           1
 AtmWgt=  12.0000000   1.0078250   1.0078250   1.0078250  12.0000000  15.9949146  14.0030740   1.0078250  12.0000000   1.0078250
 NucSpn=           0           1           1           1           0           0           2           1           0           1
 AtZEff=   0.0000000   0.0000000   0.0000000   0.0000000   0.0000000   0.0000000   0.0000000   0.0000000   0.0000000   0.0000000
 NQMom=    0.0000000   0.0000000   0.0000000   0.0000000   0.0000000   0.0000000   2.0440000   0.0000000   0.0000000   0.0000000
 NMagM=    0.0000000   2.7928460   2.7928460   2.7928460   0.0000000   0.0000000   0.4037610   2.7928460   0.0000000   2.7928460
 AtZNuc=   6.0000000   1.0000000   1.0000000   1.0000000   6.0000000   8.0000000   7.0000000   1.0000000   6.0000000   1.0000000

  Atom        11          12          13          14          15          16          17          18          19
 IAtWgt=           1          12          16          14           1          12           1           1           1
 AtmWgt=   1.0078250  12.0000000  15.9949146  14.0030740   1.0078250  12.0000000   1.0078250   1.0078250   1.0078250
 NucSpn=           1           0           0           2           1           0           1           1           1
 AtZEff=   0.0000000   0.0000000   0.0000000   0.0000000   0.0000000   0.0000000   0.0000000   0.0000000   0.0000000
 NQMom=    0.0000000   0.0000000   0.0000000   2.0440000   0.0000000   0.0000000   0.0000000   0.0000000   0.0000000
 NMagM=    2.7928460   0.0000000   0.0000000   0.4037610   2.7928460   0.0000000   2.7928460   2.7928460   2.7928460
 AtZNuc=   1.0000000   6.0000000   8.0000000   7.0000000   1.0000000   6.0000000   1.0000000   1.0000000   1.0000000
 Leave Link  101 at Wed Sep  3 14:16:36 2025, MaxMem=  8053063680 cpu:         5.9
 (Enter /nexus/posix0/bmm/home/sucerqdl/sw/g09/l103.exe)

 GradGradGradGradGradGradGradGradGradGradGradGradGradGradGradGradGradGrad
 Berny optimization.
 Initialization pass.
                           ----------------------------
                           !    Initial Parameters    !
                           ! (Angstroms and Degrees)  !
 --------------------------                            --------------------------
 ! Name  Definition              Value          Derivative Info.                !
 --------------------------------------------------------------------------------
 ! R1    R(1,2)                  1.0968         calculate D2E/DX2 analytically  !
 ! R2    R(1,3)                  1.1045         calculate D2E/DX2 analytically  !
 ! R3    R(1,4)                  1.1045         calculate D2E/DX2 analytically  !
 ! R4    R(1,5)                  1.5642         calculate D2E/DX2 analytically  !
 ! R5    R(1,16)                 7.6857         frozen, calculate D2E/DX2 analyt!
 ! R6    R(5,6)                  1.2484         calculate D2E/DX2 analytically  !
 ! R7    R(5,7)                  1.3974         calculate D2E/DX2 analytically  !
 ! R8    R(7,8)                  1.0123         calculate D2E/DX2 analytically  !
 ! R9    R(7,9)                  1.4879         calculate D2E/DX2 analytically  !
 ! R10   R(9,10)                 1.1009         calculate D2E/DX2 analytically  !
 ! R11   R(9,11)                 1.1009         calculate D2E/DX2 analytically  !
 ! R12   R(9,12)                 1.5678         calculate D2E/DX2 analytically  !
 ! R13   R(12,13)                1.2444         calculate D2E/DX2 analytically  !
 ! R14   R(12,14)                1.393          calculate D2E/DX2 analytically  !
 ! R15   R(14,15)                1.0097         calculate D2E/DX2 analytically  !
 ! R16   R(14,16)                1.5076         calculate D2E/DX2 analytically  !
 ! R17   R(16,17)                1.1083         calculate D2E/DX2 analytically  !
 ! R18   R(16,18)                1.0967         calculate D2E/DX2 analytically  !
 ! R19   R(16,19)                1.0967         calculate D2E/DX2 analytically  !
 ! A1    A(2,1,3)              109.6354         calculate D2E/DX2 analytically  !
 ! A2    A(2,1,4)              109.6348         calculate D2E/DX2 analytically  !
 ! A3    A(2,1,5)              112.0203         calculate D2E/DX2 analytically  !
 ! A4    A(3,1,4)              106.9581         calculate D2E/DX2 analytically  !
 ! A5    A(3,1,5)              109.2294         calculate D2E/DX2 analytically  !
 ! A6    A(4,1,5)              109.2294         calculate D2E/DX2 analytically  !
 ! A7    A(1,5,6)              119.635          calculate D2E/DX2 analytically  !
 ! A8    A(1,5,7)              120.5637         calculate D2E/DX2 analytically  !
 ! A9    A(6,5,7)              119.8013         calculate D2E/DX2 analytically  !
 ! A10   A(5,7,8)              122.7944         calculate D2E/DX2 analytically  !
 ! A11   A(5,7,9)              121.1111         calculate D2E/DX2 analytically  !
 ! A12   A(8,7,9)              116.0945         calculate D2E/DX2 analytically  !
 ! A13   A(7,9,10)             109.283          calculate D2E/DX2 analytically  !
 ! A14   A(7,9,11)             109.2839         calculate D2E/DX2 analytically  !
 ! A15   A(7,9,12)             112.8489         calculate D2E/DX2 analytically  !
 ! A16   A(10,9,11)            106.5943         calculate D2E/DX2 analytically  !
 ! A17   A(10,9,12)            109.3196         calculate D2E/DX2 analytically  !
 ! A18   A(11,9,12)            109.3174         calculate D2E/DX2 analytically  !
 ! A19   A(9,12,13)            120.944          calculate D2E/DX2 analytically  !
 ! A20   A(9,12,14)            116.4365         calculate D2E/DX2 analytically  !
 ! A21   A(13,12,14)           122.6195         calculate D2E/DX2 analytically  !
 ! A22   A(12,14,15)           117.771          calculate D2E/DX2 analytically  !
 ! A23   A(12,14,16)           125.2783         calculate D2E/DX2 analytically  !
 ! A24   A(15,14,16)           116.9507         calculate D2E/DX2 analytically  !
 ! A25   A(14,16,17)           109.6659         calculate D2E/DX2 analytically  !
 ! A26   A(14,16,18)           110.1321         calculate D2E/DX2 analytically  !
 ! A27   A(14,16,19)           110.1413         calculate D2E/DX2 analytically  !
 ! A28   A(17,16,18)           109.2217         calculate D2E/DX2 analytically  !
 ! A29   A(17,16,19)           109.2171         calculate D2E/DX2 analytically  !
 ! A30   A(18,16,19)           108.4363         calculate D2E/DX2 analytically  !
 ! D1    D(2,1,5,6)           -179.9921         calculate D2E/DX2 analytically  !
 ! D2    D(2,1,5,7)              0.0091         calculate D2E/DX2 analytically  !
 ! D3    D(3,1,5,6)            -58.3261         calculate D2E/DX2 analytically  !
 ! D4    D(3,1,5,7)            121.6751         calculate D2E/DX2 analytically  !
 ! D5    D(4,1,5,6)             58.3426         calculate D2E/DX2 analytically  !
 ! D6    D(4,1,5,7)           -121.6563         calculate D2E/DX2 analytically  !
 ! D7    D(1,5,7,8)             -0.0026         calculate D2E/DX2 analytically  !
 ! D8    D(1,5,7,9)            179.9982         calculate D2E/DX2 analytically  !
 ! D9    D(6,5,7,8)            179.9986         calculate D2E/DX2 analytically  !
 ! D10   D(6,5,7,9)             -0.0007         calculate D2E/DX2 analytically  !
 ! D11   D(5,7,9,10)            58.1354         calculate D2E/DX2 analytically  !
 ! D12   D(5,7,9,11)           -58.1576         calculate D2E/DX2 analytically  !
 ! D13   D(5,7,9,12)           179.99           calculate D2E/DX2 analytically  !
 ! D14   D(8,7,9,10)          -121.864          calculate D2E/DX2 analytically  !
 ! D15   D(8,7,9,11)           121.8431         calculate D2E/DX2 analytically  !
 ! D16   D(8,7,9,12)            -0.0093         calculate D2E/DX2 analytically  !
 ! D17   D(7,9,12,13)            0.0122         calculate D2E/DX2 analytically  !
 ! D18   D(7,9,12,14)         -179.9884         calculate D2E/DX2 analytically  !
 ! D19   D(10,9,12,13)         121.8462         calculate D2E/DX2 analytically  !
 ! D20   D(10,9,12,14)         -58.1544         calculate D2E/DX2 analytically  !
 ! D21   D(11,9,12,13)        -121.8213         calculate D2E/DX2 analytically  !
 ! D22   D(11,9,12,14)          58.1781         calculate D2E/DX2 analytically  !
 ! D23   D(9,12,14,15)           0.0065         calculate D2E/DX2 analytically  !
 ! D24   D(9,12,14,16)         179.9995         calculate D2E/DX2 analytically  !
 ! D25   D(13,12,14,15)       -179.9941         calculate D2E/DX2 analytically  !
 ! D26   D(13,12,14,16)         -0.0011         calculate D2E/DX2 analytically  !
 ! D27   D(12,14,16,17)       -179.9547         calculate D2E/DX2 analytically  !
 ! D28   D(12,14,16,18)        -59.731          calculate D2E/DX2 analytically  !
 ! D29   D(12,14,16,19)         59.8215         calculate D2E/DX2 analytically  !
 ! D30   D(15,14,16,17)          0.0383         calculate D2E/DX2 analytically  !
 ! D31   D(15,14,16,18)        120.2621         calculate D2E/DX2 analytically  !
 ! D32   D(15,14,16,19)       -120.1855         calculate D2E/DX2 analytically  !
 --------------------------------------------------------------------------------
 Trust Radius=3.00D-01 FncErr=1.00D-07 GrdErr=1.00D-06
 Number of steps in this run=     91 maximum allowed number of steps=    114.
 GradGradGradGradGradGradGradGradGradGradGradGradGradGradGradGradGradGrad

 Leave Link  103 at Wed Sep  3 14:16:36 2025, MaxMem=  8053063680 cpu:         0.2
 (Enter /nexus/posix0/bmm/home/sucerqdl/sw/g09/l202.exe)
                          Input orientation:                          
 ---------------------------------------------------------------------
 Center     Atomic      Atomic             Coordinates (Angstroms)
 Number     Number       Type             X           Y           Z
 ---------------------------------------------------------------------
      1          6           0        0.000000    0.000000    0.000000
      2          1           0        0.187758   -1.080627    0.000199
      3          1           0       -0.598007    0.272963    0.887558
      4          1           0       -0.598024    0.272624   -0.887654
      5          6           0        1.328270    0.826036   -0.000169
      6          8           0        1.279433    2.073453   -0.000251
      7          7           0        2.567143    0.179492   -0.000254
      8          1           0        2.659511   -0.828607   -0.000172
      9          6           0        3.838069    0.953130   -0.000455
     10          1           0        3.863473    1.610828    0.882032
     11          1           0        3.863472    1.610401   -0.883266
     12          6           0        5.109334    0.035543   -0.000269
     13          8           0        5.003533   -1.204330   -0.000209
     14          7           0        6.342175    0.683956   -0.000189
     15          1           0        6.342683    1.693667   -0.000154
     16          6           0        7.685697    0.000000    0.000000
     17          1           0        8.491566    0.760860    0.000852
     18          1           0        7.786520   -0.633696    0.889333
     19          1           0        7.787502   -0.632625   -0.889988
 ---------------------------------------------------------------------
                    Distance matrix (angstroms):
                    1          2          3          4          5
     1  C    0.000000
     2  H    1.096818   0.000000
     3  H    1.104482   1.799178   0.000000
     4  H    1.104484   1.799174   1.775212   0.000000
     5  C    1.564173   2.221741   2.191916   2.191918   0.000000
     6  O    2.436423   3.337660   2.748590   2.748693   1.248372
     7  N    2.573410   2.692465   3.288635   3.288531   1.397435
     8  H    2.785604   2.484568   3.551471   3.551319   2.123687
     9  C    3.954647   4.178629   4.574928   4.574837   2.513015
    10  H    4.277753   4.640306   4.657758   4.982723   2.796682
    11  H    4.277846   4.640368   4.982906   4.657747   2.796843
    12  C    5.109458   5.046558   5.780860   5.780795   3.862813
    13  O    5.146431   4.817363   5.860698   5.860580   4.198803
    14  N    6.378948   6.402390   7.008790   7.008791   5.015917
    15  H    6.564917   6.751282   7.140001   7.140059   5.088921
    16  C    7.685697   7.575410   8.335588   8.335604   6.410867
    17  H    8.525585   8.505545   9.145744   9.145953   7.163592
    18  H    7.862721   7.663647   8.433405   8.618566   6.680645
    19  H    7.863681   7.664806   8.619543   8.434248   6.681403
                    6          7          8          9         10
     6  O    0.000000
     7  N    2.290259   0.000000
     8  H    3.213498   1.012322   0.000000
     9  C    2.793160   1.487874   2.136255   0.000000
    10  H    2.769424   2.123116   2.859834   1.100907   0.000000
    11  H    2.769727   2.123130   2.859744   1.100911   1.765298
    12  C    4.338343   2.546263   2.597766   1.567826   2.193660
    13  O    4.961127   2.801956   2.373943   2.452129   3.162783
    14  N    5.249958   3.808589   3.981188   2.518531   2.789511
    15  H    5.077474   4.067854   4.464037   2.611798   2.632793
    16  C    6.733456   5.121700   5.094029   3.963925   4.240536
    17  H    7.330605   5.952880   6.044772   4.657467   4.787293
    18  H    7.103675   5.356728   5.207247   4.347413   4.519761
    19  H    7.104186   5.357548   5.208308   4.347863   4.855012
                   11         12         13         14         15
    11  H    0.000000
    12  C    2.193635   0.000000
    13  O    3.162632   1.244379   0.000000
    14  N    2.789640   1.392959   2.314646   0.000000
    15  H    2.633118   2.066525   3.192446   1.009711   0.000000
    16  C    4.240632   2.576608   2.940138   1.507597   2.161526
    17  H    4.787759   3.459130   4.003541   2.150767   2.342611
    18  H    4.854728   2.899413   2.976898   2.147927   2.879665
    19  H    4.519870   2.900110   2.978093   2.148046   2.879400
                   16         17         18         19
    16  C    0.000000
    17  H    1.108302   0.000000
    18  H    1.096653   1.797575   0.000000
    19  H    1.096657   1.797526   1.779322   0.000000
 Stoichiometry    C5H10N2O2
 Framework group  C1[X(C5H10N2O2)]
 Deg. of freedom    51
 Full point group                 C1      NOp   1
 Largest Abelian subgroup         C1      NOp   1
 Largest concise Abelian subgroup C1      NOp   1
                         Standard orientation:                         
 ---------------------------------------------------------------------
 Center     Atomic      Atomic             Coordinates (Angstroms)
 Number     Number       Type             X           Y           Z
 ---------------------------------------------------------------------
      1          6           0       -3.647132    0.813547   -0.000191
      2          1           0       -3.335216    1.865077   -0.000391
      3          1           0       -4.272780    0.611838   -0.887749
      4          1           0       -4.272757    0.612177    0.887463
      5          6           0       -2.423716   -0.161077   -0.000022
      6          8           0       -2.617009   -1.394394    0.000060
      7          7           0       -1.118173    0.337304    0.000062
      8          1           0       -0.909421    1.327868   -0.000019
      9          6           0        0.054368   -0.578620    0.000264
     10          1           0        0.003262   -1.234821   -0.882224
     11          1           0        0.003311   -1.234397    0.883074
     12          6           0        1.423544    0.185211    0.000077
     13          8           0        1.462368    1.428984    0.000017
     14          7           0        2.572792   -0.601913   -0.000003
     15          1           0        2.456101   -1.604859   -0.000038
     16          6           0        3.986619   -0.078520   -0.000191
     17          1           0        4.698729   -0.927774   -0.001043
     18          1           0        4.160313    0.539190   -0.889524
     19          1           0        4.161164    0.538012    0.889797
 ---------------------------------------------------------------------
 Rotational constants (GHZ):      5.0175468      0.6191320      0.5569006
 Leave Link  202 at Wed Sep  3 14:16:36 2025, MaxMem=  8053063680 cpu:         0.1
 (Enter /nexus/posix0/bmm/home/sucerqdl/sw/g09/l301.exe)
 Standard basis: 6-31+G (6D, 7F)
 Ernie: Thresh=  0.10000D-02 Tol=  0.10000D-05 Strict=F.
 There are   137 symmetry adapted cartesian basis functions of A   symmetry.
 There are   137 symmetry adapted basis functions of A   symmetry.
   137 basis functions,   274 primitive gaussians,   137 cartesian basis functions
    35 alpha electrons       35 beta electrons
       nuclear repulsion energy       435.8063736924 Hartrees.
 IExCor= 3226 DFT=T Ex+Corr=BMK ExCW=0 ScaHFX=  0.420000
 ScaDFX=  1.000000  1.000000  1.000000  1.000000 ScalE2=  1.000000  1.000000
 IRadAn=      0 IRanWt=     -1 IRanGd=            0 ICorTp=0 IEmpDi=  4
 NAtoms=   19 NActive=   19 NUniq=   19 SFac= 1.00D+00 NAtFMM=   60 NAOKFM=F Big=F
 Integral buffers will be    131072 words long.
 Raffenetti 2 integral format.
 Two-electron integral symmetry is turned on.
 Leave Link  301 at Wed Sep  3 14:16:36 2025, MaxMem=  8053063680 cpu:         0.7
 (Enter /nexus/posix0/bmm/home/sucerqdl/sw/g09/l302.exe)
 NPDir=0 NMtPBC=     1 NCelOv=     1 NCel=       1 NClECP=     1 NCelD=      1
         NCelK=      1 NCelE2=     1 NClLst=     1 CellRange=     0.0.
 One-electron integrals computed using PRISM.
 NBasis=   137 RedAO= T EigKep=  2.28D-05  NBF=   137
 NBsUse=   137 1.00D-06 EigRej= -1.00D+00 NBFU=   137
 Precomputing XC quadrature grid using
 IXCGrd= 4 IRadAn=           0 IRanWt=          -1 IRanGd=           0 AccXCQ= 0.00D+00.
 Generated NRdTot=       0 NPtTot=           0 NUsed=           0 NTot=          32
 NSgBfM=   137   137   137   137   137 MxSgAt=    19 MxSgA2=    19.
 Leave Link  302 at Wed Sep  3 14:16:36 2025, MaxMem=  8053063680 cpu:         2.0
 (Enter /nexus/posix0/bmm/home/sucerqdl/sw/g09/l303.exe)
 DipDrv:  MaxL=1.
 Leave Link  303 at Wed Sep  3 14:16:36 2025, MaxMem=  8053063680 cpu:         0.4
 (Enter /nexus/posix0/bmm/home/sucerqdl/sw/g09/l401.exe)
 ExpMin= 4.38D-02 ExpMax= 5.48D+03 ExpMxC= 8.25D+02 IAcc=2 IRadAn=         4 AccDes= 0.00D+00
 Harris functional with IExCor= 1009 and IRadAn=       4 diagonalized for initial guess.
 HarFok:  IExCor= 1009 AccDes= 0.00D+00 IRadAn=         4 IDoV= 1 UseB2=F ITyADJ=14
 ICtDFT=  3500011 ScaDFX=  1.000000  1.000000  1.000000  1.000000
 FoFCou: FMM=F IPFlag=           0 FMFlag=      100000 FMFlg1=           0
         NFxFlg=           0 DoJE=T BraDBF=F KetDBF=T FulRan=T
         wScrn=  0.000000 ICntrl=     500 IOpCl=  0 I1Cent=   200000004 NGrid=           0
         NMat0=    1 NMatS0=      1 NMatT0=    0 NMatD0=    1 NMtDS0=    0 NMtDT0=    0
 Petite list used in FoFCou.
 Harris En= -456.000642044812    
 JPrj=0 DoOrth=F DoCkMO=F.
 Leave Link  401 at Wed Sep  3 14:16:37 2025, MaxMem=  8053063680 cpu:         3.3
 (Enter /nexus/posix0/bmm/home/sucerqdl/sw/g09/l502.exe)
 Closed shell SCF:
 Using DIIS extrapolation, IDIIS=  1040.
 Integral symmetry usage will be decided dynamically.
 Keep R1 ints in memory in canonical form, NReq=46076400.
 IVT=       78102 IEndB=       78102 NGot=  8053063680 MDV=  8008301248
 LenX=  8008301248 LenY=  8008282038
 Requested convergence on RMS density matrix=1.00D-08 within 128 cycles.
 Requested convergence on MAX density matrix=1.00D-06.
 Requested convergence on             energy=1.00D-06.
 No special actions if energy rises.
 FoFCou: FMM=F IPFlag=           0 FMFlag=           0 FMFlg1=           0
         NFxFlg=           0 DoJE=F BraDBF=F KetDBF=F FulRan=T
         wScrn=  0.000000 ICntrl=     600 IOpCl=  0 I1Cent=           0 NGrid=           0
         NMat0=    1 NMatS0=   9453 NMatT0=    0 NMatD0=    1 NMtDS0=    0 NMtDT0=    0
 Symmetry not used in FoFCou.

 Cycle   1  Pass 1  IDiag  1:
 E= -455.916236188697    
 DIIS: error= 3.66D-02 at cycle   1 NSaved=   1.
 NSaved= 1 IEnMin= 1 EnMin= -455.916236188697     IErMin= 1 ErrMin= 3.66D-02
 ErrMax= 3.66D-02  0.00D+00 EMaxC= 1.00D-01 BMatC= 2.62D-01 BMatP= 2.62D-01
 IDIUse=3 WtCom= 6.34D-01 WtEn= 3.66D-01
 Coeff-Com:  0.100D+01
 Coeff-En:   0.100D+01
 Coeff:      0.100D+01
 Gap=     0.325 Goal=   None    Shift=    0.000
 GapD=    0.325 DampG=1.000 DampE=0.500 DampFc=0.5000 IDamp=-1.
 Damping current iteration by 5.00D-01
 RMSDP=3.16D-02 MaxDP=1.72D+00              OVMax= 2.76D-01

 Cycle   2  Pass 1  IDiag  1:
 E= -455.984109457569     Delta-E=       -0.067873268872 Rises=F Damp=T
 DIIS: error= 1.61D-02 at cycle   2 NSaved=   2.
 NSaved= 2 IEnMin= 2 EnMin= -455.984109457569     IErMin= 2 ErrMin= 1.61D-02
 ErrMax= 1.61D-02  0.00D+00 EMaxC= 1.00D-01 BMatC= 3.85D-02 BMatP= 2.62D-01
 IDIUse=3 WtCom= 8.39D-01 WtEn= 1.61D-01
 Coeff-Com:  0.220D+00 0.780D+00
 Coeff-En:   0.326D+00 0.674D+00
 Coeff:      0.237D+00 0.763D+00
 Gap=     0.325 Goal=   None    Shift=    0.000
 RMSDP=1.50D-02 MaxDP=9.64D-01 DE=-6.79D-02 OVMax= 1.39D-01

 Cycle   3  Pass 1  IDiag  1:
 E= -456.132546052328     Delta-E=       -0.148436594759 Rises=F Damp=F
 DIIS: error= 1.36D-02 at cycle   3 NSaved=   3.
 NSaved= 3 IEnMin= 3 EnMin= -456.132546052328     IErMin= 3 ErrMin= 1.36D-02
 ErrMax= 1.36D-02  0.00D+00 EMaxC= 1.00D-01 BMatC= 1.89D-02 BMatP= 3.85D-02
 IDIUse=3 WtCom= 8.64D-01 WtEn= 1.36D-01
 Coeff-Com:  0.742D-01 0.412D+00 0.514D+00
 Coeff-En:   0.000D+00 0.000D+00 0.100D+01
 Coeff:      0.641D-01 0.356D+00 0.580D+00
 Gap=     0.329 Goal=   None    Shift=    0.000
 RMSDP=2.20D-03 MaxDP=7.96D-02 DE=-1.48D-01 OVMax= 4.42D-02

 Cycle   4  Pass 1  IDiag  1:
 E= -456.148028947407     Delta-E=       -0.015482895079 Rises=F Damp=F
 DIIS: error= 4.88D-03 at cycle   4 NSaved=   4.
 NSaved= 4 IEnMin= 4 EnMin= -456.148028947407     IErMin= 4 ErrMin= 4.88D-03
 ErrMax= 4.88D-03  0.00D+00 EMaxC= 1.00D-01 BMatC= 2.45D-03 BMatP= 1.89D-02
 IDIUse=3 WtCom= 9.51D-01 WtEn= 4.88D-02
 Coeff-Com:  0.157D-01 0.266D-01 0.262D+00 0.696D+00
 Coeff-En:   0.000D+00 0.000D+00 0.637D-01 0.936D+00
 Coeff:      0.149D-01 0.253D-01 0.252D+00 0.707D+00
 Gap=     0.326 Goal=   None    Shift=    0.000
 RMSDP=8.39D-04 MaxDP=3.98D-02 DE=-1.55D-02 OVMax= 1.20D-02

 Cycle   5  Pass 1  IDiag  1:
 E= -456.149907239083     Delta-E=       -0.001878291676 Rises=F Damp=F
 DIIS: error= 1.36D-03 at cycle   5 NSaved=   5.
 NSaved= 5 IEnMin= 5 EnMin= -456.149907239083     IErMin= 5 ErrMin= 1.36D-03
 ErrMax= 1.36D-03  0.00D+00 EMaxC= 1.00D-01 BMatC= 1.51D-04 BMatP= 2.45D-03
 IDIUse=3 WtCom= 9.86D-01 WtEn= 1.36D-02
 Coeff-Com:  0.414D-02-0.172D-01 0.944D-01 0.366D+00 0.553D+00
 Coeff-En:   0.000D+00 0.000D+00 0.000D+00 0.000D+00 0.100D+01
 Coeff:      0.409D-02-0.170D-01 0.931D-01 0.361D+00 0.559D+00
 Gap=     0.323 Goal=   None    Shift=    0.000
 RMSDP=2.54D-04 MaxDP=1.63D-02 DE=-1.88D-03 OVMax= 3.32D-03

 Cycle   6  Pass 1  IDiag  1:
 E= -456.150044324468     Delta-E=       -0.000137085385 Rises=F Damp=F
 DIIS: error= 1.83D-04 at cycle   6 NSaved=   6.
 NSaved= 6 IEnMin= 6 EnMin= -456.150044324468     IErMin= 6 ErrMin= 1.83D-04
 ErrMax= 1.83D-04  0.00D+00 EMaxC= 1.00D-01 BMatC= 5.85D-06 BMatP= 1.51D-04
 IDIUse=3 WtCom= 9.98D-01 WtEn= 1.83D-03
 Coeff-Com:  0.168D-02-0.792D-02 0.163D-01 0.626D-01 0.173D+00 0.755D+00
 Coeff-En:   0.000D+00 0.000D+00 0.000D+00 0.000D+00 0.000D+00 0.100D+01
 Coeff:      0.168D-02-0.790D-02 0.162D-01 0.624D-01 0.173D+00 0.755D+00
 Gap=     0.323 Goal=   None    Shift=    0.000
 RMSDP=8.71D-05 MaxDP=4.83D-03 DE=-1.37D-04 OVMax= 3.93D-04

 Cycle   7  Pass 1  IDiag  1:
 E= -456.150049275813     Delta-E=       -0.000004951345 Rises=F Damp=F
 DIIS: error= 5.93D-05 at cycle   7 NSaved=   7.
 NSaved= 7 IEnMin= 7 EnMin= -456.150049275813     IErMin= 7 ErrMin= 5.93D-05
 ErrMax= 5.93D-05  0.00D+00 EMaxC= 1.00D-01 BMatC= 5.82D-07 BMatP= 5.85D-06
 IDIUse=1 WtCom= 1.00D+00 WtEn= 0.00D+00
 Coeff-Com:  0.382D-03-0.831D-03-0.698D-02-0.322D-01-0.133D-01 0.236D+00
 Coeff-Com:  0.817D+00
 Coeff:      0.382D-03-0.831D-03-0.698D-02-0.322D-01-0.133D-01 0.236D+00
 Coeff:      0.817D+00
 Gap=     0.323 Goal=   None    Shift=    0.000
 RMSDP=2.58D-05 MaxDP=7.61D-04 DE=-4.95D-06 OVMax= 2.58D-04

 Cycle   8  Pass 1  IDiag  1:
 E= -456.150049892650     Delta-E=       -0.000000616838 Rises=F Damp=F
 DIIS: error= 9.22D-06 at cycle   8 NSaved=   8.
 NSaved= 8 IEnMin= 8 EnMin= -456.150049892650     IErMin= 8 ErrMin= 9.22D-06
 ErrMax= 9.22D-06  0.00D+00 EMaxC= 1.00D-01 BMatC= 2.18D-08 BMatP= 5.82D-07
 IDIUse=1 WtCom= 1.00D+00 WtEn= 0.00D+00
 Coeff-Com:  0.384D-05 0.225D-03-0.179D-02-0.880D-02-0.108D-01-0.171D-01
 Coeff-Com:  0.170D+00 0.868D+00
 Coeff:      0.384D-05 0.225D-03-0.179D-02-0.880D-02-0.108D-01-0.171D-01
 Coeff:      0.170D+00 0.868D+00
 Gap=     0.323 Goal=   None    Shift=    0.000
 RMSDP=6.59D-06 MaxDP=3.23D-04 DE=-6.17D-07 OVMax= 8.91D-05

 Cycle   9  Pass 1  IDiag  1:
 E= -456.150049908859     Delta-E=       -0.000000016209 Rises=F Damp=F
 DIIS: error= 1.33D-05 at cycle   9 NSaved=   9.
 NSaved= 9 IEnMin= 9 EnMin= -456.150049908859     IErMin= 8 ErrMin= 9.22D-06
 ErrMax= 1.33D-05  0.00D+00 EMaxC= 1.00D-01 BMatC= 1.43D-08 BMatP= 2.18D-08
 IDIUse=1 WtCom= 1.00D+00 WtEn= 0.00D+00
 Coeff-Com: -0.403D-04 0.240D-03-0.381D-03-0.223D-02-0.565D-02-0.394D-01
 Coeff-Com:  0.247D-01 0.574D+00 0.449D+00
 Coeff:     -0.403D-04 0.240D-03-0.381D-03-0.223D-02-0.565D-02-0.394D-01
 Coeff:      0.247D-01 0.574D+00 0.449D+00
 Gap=     0.323 Goal=   None    Shift=    0.000
 RMSDP=1.79D-06 MaxDP=3.55D-05 DE=-1.62D-08 OVMax= 3.95D-05

 Cycle  10  Pass 1  IDiag  1:
 E= -456.150049920050     Delta-E=       -0.000000011191 Rises=F Damp=F
 DIIS: error= 1.85D-06 at cycle  10 NSaved=  10.
 NSaved=10 IEnMin=10 EnMin= -456.150049920050     IErMin=10 ErrMin= 1.85D-06
 ErrMax= 1.85D-06  0.00D+00 EMaxC= 1.00D-01 BMatC= 2.70D-10 BMatP= 1.43D-08
 IDIUse=1 WtCom= 1.00D+00 WtEn= 0.00D+00
 Coeff-Com: -0.973D-05 0.323D-04 0.103D-03 0.345D-03-0.116D-03-0.638D-02
 Coeff-Com: -0.103D-01 0.259D-01 0.130D+00 0.860D+00
 Coeff:     -0.973D-05 0.323D-04 0.103D-03 0.345D-03-0.116D-03-0.638D-02
 Coeff:     -0.103D-01 0.259D-01 0.130D+00 0.860D+00
 Gap=     0.323 Goal=   None    Shift=    0.000
 RMSDP=5.99D-07 MaxDP=1.42D-05 DE=-1.12D-08 OVMax= 7.62D-06

 Cycle  11  Pass 1  IDiag  1:
 E= -456.150049920330     Delta-E=       -0.000000000279 Rises=F Damp=F
 DIIS: error= 4.00D-07 at cycle  11 NSaved=  11.
 NSaved=11 IEnMin=11 EnMin= -456.150049920330     IErMin=11 ErrMin= 4.00D-07
 ErrMax= 4.00D-07  0.00D+00 EMaxC= 1.00D-01 BMatC= 2.08D-11 BMatP= 2.70D-10
 IDIUse=1 WtCom= 1.00D+00 WtEn= 0.00D+00
 Coeff-Com: -0.186D-05 0.244D-05 0.622D-04 0.233D-03 0.220D-03-0.740D-03
 Coeff-Com: -0.536D-02-0.155D-01 0.268D-01 0.349D+00 0.646D+00
 Coeff:     -0.186D-05 0.244D-05 0.622D-04 0.233D-03 0.220D-03-0.740D-03
 Coeff:     -0.536D-02-0.155D-01 0.268D-01 0.349D+00 0.646D+00
 Gap=     0.323 Goal=   None    Shift=    0.000
 RMSDP=1.26D-07 MaxDP=7.17D-06 DE=-2.79D-10 OVMax= 1.10D-06

 Cycle  12  Pass 1  IDiag  1:
 E= -456.150049920352     Delta-E=       -0.000000000022 Rises=F Damp=F
 DIIS: error= 1.89D-07 at cycle  12 NSaved=  12.
 NSaved=12 IEnMin=12 EnMin= -456.150049920352     IErMin=12 ErrMin= 1.89D-07
 ErrMax= 1.89D-07  0.00D+00 EMaxC= 1.00D-01 BMatC= 3.59D-12 BMatP= 2.08D-11
 IDIUse=1 WtCom= 1.00D+00 WtEn= 0.00D+00
 Coeff-Com:  0.587D-06-0.307D-05 0.156D-04 0.541D-04 0.118D-03 0.541D-03
 Coeff-Com: -0.116D-02-0.106D-01-0.836D-02 0.423D-01 0.315D+00 0.662D+00
 Coeff:      0.587D-06-0.307D-05 0.156D-04 0.541D-04 0.118D-03 0.541D-03
 Coeff:     -0.116D-02-0.106D-01-0.836D-02 0.423D-01 0.315D+00 0.662D+00
 Gap=     0.323 Goal=   None    Shift=    0.000
 RMSDP=3.78D-08 MaxDP=1.30D-06 DE=-2.23D-11 OVMax= 4.79D-07

 Cycle  13  Pass 1  IDiag  1:
 E= -456.150049920351     Delta-E=        0.000000000000 Rises=F Damp=F
 DIIS: error= 2.43D-08 at cycle  13 NSaved=  13.
 NSaved=13 IEnMin=12 EnMin= -456.150049920352     IErMin=13 ErrMin= 2.43D-08
 ErrMax= 2.43D-08  0.00D+00 EMaxC= 1.00D-01 BMatC= 7.90D-14 BMatP= 3.59D-12
 IDIUse=1 WtCom= 1.00D+00 WtEn= 0.00D+00
 Coeff-Com:  0.271D-06-0.975D-06 0.209D-05 0.464D-05 0.246D-04 0.176D-03
 Coeff-Com: -0.106D-03-0.228D-02-0.310D-02-0.406D-02 0.569D-01 0.179D+00
 Coeff-Com:  0.774D+00
 Coeff:      0.271D-06-0.975D-06 0.209D-05 0.464D-05 0.246D-04 0.176D-03
 Coeff:     -0.106D-03-0.228D-02-0.310D-02-0.406D-02 0.569D-01 0.179D+00
 Coeff:      0.774D+00
 Gap=     0.323 Goal=   None    Shift=    0.000
 RMSDP=6.22D-09 MaxDP=1.34D-07 DE= 4.55D-13 OVMax= 7.76D-08

 SCF Done:  E(RBMK) =  -456.150049920     A.U. after   13 cycles
            NFock= 13  Conv=0.62D-08     -V/T= 2.0070
 KE= 4.529716962279D+02 PE=-1.936329038392D+03 EE= 5.914009185514D+02
 Leave Link  502 at Wed Sep  3 14:16:42 2025, MaxMem=  8053063680 cpu:        78.9
 (Enter /nexus/posix0/bmm/home/sucerqdl/sw/g09/l801.exe)
 DoSCS=F DFT=T ScalE2(SS,OS)=  1.000000  1.000000
 Range of M.O.s used for correlation:     1   137
 NBasis=   137 NAE=    35 NBE=    35 NFC=     0 NFV=     0
 NROrb=    137 NOA=    35 NOB=    35 NVA=   102 NVB=   102

 **** Warning!!: The largest alpha MO coefficient is  0.61883499D+02

 Leave Link  801 at Wed Sep  3 14:16:43 2025, MaxMem=  8053063680 cpu:         0.3
 (Enter /nexus/posix0/bmm/home/sucerqdl/sw/g09/l1101.exe)
 Using compressed storage, NAtomX=    19.
 Will process     20 centers per pass.
 Leave Link 1101 at Wed Sep  3 14:16:43 2025, MaxMem=  8053063680 cpu:         1.5
 (Enter /nexus/posix0/bmm/home/sucerqdl/sw/g09/l1102.exe)
 Symmetrizing basis deriv contribution to polar:
 IMax=3 JMax=2 DiffMx= 0.00D+00
 Leave Link 1102 at Wed Sep  3 14:16:43 2025, MaxMem=  8053063680 cpu:         0.4
 (Enter /nexus/posix0/bmm/home/sucerqdl/sw/g09/l1110.exe)
 Forming Gx(P) for the SCF density, NAtomX=    19.
 Integral derivatives from FoFJK, PRISM(SPDF).
 Do as many integral derivatives as possible in FoFJK.
 G2DrvN: MDV=    8053063424.
 G2DrvN: will do    20 centers at a time, making    1 passes.
 Calling FoFCou, ICntrl=  3107 FMM=F I1Cent=   0 AccDes= 0.00D+00.
 FoFJK:  IHMeth= 1 ICntrl=    3107 DoSepK=F KAlg= 0 I1Cent=   0 FoldK=F
 IRaf=         0 NMat=   1 IRICut=       1 DoRegI=T DoRafI=F ISym2E= 0.
 FoFCou: FMM=F IPFlag=           0 FMFlag=      100000 FMFlg1=           0
         NFxFlg=           0 DoJE=F BraDBF=F KetDBF=F FulRan=T
         wScrn=  0.000000 ICntrl=    3107 IOpCl=  0 I1Cent=           0 NGrid=           0
         NMat0=    1 NMatS0=      1 NMatT0=    0 NMatD0=    1 NMtDS0=    0 NMtDT0=    0
 Symmetry not used in FoFCou.
 End of G2Drv F.D. properties file   721 does not exist.
 End of G2Drv F.D. properties file   722 does not exist.
 End of G2Drv F.D. properties file   788 does not exist.
 Leave Link 1110 at Wed Sep  3 14:16:52 2025, MaxMem=  8053063680 cpu:       140.7
 (Enter /nexus/posix0/bmm/home/sucerqdl/sw/g09/l1002.exe)
 Minotr:  Closed shell wavefunction.
          IDoAtm=1111111111111111111
          Direct CPHF calculation.
          Differentiating once with respect to nuclear coordinates.
          Requested convergence is 1.0D-08 RMS, and 1.0D-07 maximum.
          Secondary convergence is 1.0D-12 RMS, and 1.0D-12 maximum.
          NewPWx=T KeepS1=F KeepF1=F KeepIn=T MapXYZ=F SortEE=F KeepMc=T.
          MDV=    8053063349 using IRadAn=       2.
 Generate precomputed XC quadrature information.
 Keep R1 ints in memory in canonical form, NReq=46004208.
 FoFCou: FMM=F IPFlag=           0 FMFlag=           0 FMFlg1=           0
         NFxFlg=           0 DoJE=F BraDBF=F KetDBF=F FulRan=T
         wScrn=  0.000000 ICntrl=     600 IOpCl=  0 I1Cent=           0 NGrid=           0
         NMat0=    1 NMatS0=   9453 NMatT0=    0 NMatD0=    1 NMtDS0=    0 NMtDT0=    0
 Symmetry not used in FoFCou.
          Solving linear equations simultaneously, MaxMat=       0.
          There are    60 degrees of freedom in the 1st order CPHF.  IDoFFX=6 NUNeed=     0.
     54 vectors produced by pass  0 Test12= 5.95D-15 1.67D-09 XBig12= 1.36D-01 9.69D-02.
 AX will form    54 AO Fock derivatives at one time.
     54 vectors produced by pass  1 Test12= 5.95D-15 1.67D-09 XBig12= 1.07D-02 3.59D-02.
     54 vectors produced by pass  2 Test12= 5.95D-15 1.67D-09 XBig12= 9.10D-05 2.04D-03.
     54 vectors produced by pass  3 Test12= 5.95D-15 1.67D-09 XBig12= 2.58D-07 8.32D-05.
     54 vectors produced by pass  4 Test12= 5.95D-15 1.67D-09 XBig12= 7.94D-10 5.56D-06.
     54 vectors produced by pass  5 Test12= 5.95D-15 1.67D-09 XBig12= 1.90D-12 2.69D-07.
     25 vectors produced by pass  6 Test12= 5.95D-15 1.67D-09 XBig12= 1.17D-14 2.30D-08.
      3 vectors produced by pass  7 Test12= 5.95D-15 1.67D-09 XBig12= 1.71D-16 2.99D-09.
 InvSVY:  IOpt=1 It=  1 EMax= 5.00D-16
 Solved reduced A of dimension   352 with    60 vectors.
 End of Minotr F.D. properties file   721 does not exist.
 End of Minotr F.D. properties file   722 does not exist.
 End of Minotr F.D. properties file   788 does not exist.
 Leave Link 1002 at Wed Sep  3 14:17:01 2025, MaxMem=  8053063680 cpu:       142.0
 (Enter /nexus/posix0/bmm/home/sucerqdl/sw/g09/l601.exe)
 Copying SCF densities to generalized density rwf, IOpCl= 0 IROHF=0.

 **********************************************************************

            Population analysis using the SCF density.

 **********************************************************************

 Orbital symmetries:
       Occupied  (A) (A) (A) (A) (A) (A) (A) (A) (A) (A) (A) (A)
                 (A) (A) (A) (A) (A) (A) (A) (A) (A) (A) (A) (A)
                 (A) (A) (A) (A) (A) (A) (A) (A) (A) (A) (A)
       Virtual   (A) (A) (A) (A) (A) (A) (A) (A) (A) (A) (A) (A)
                 (A) (A) (A) (A) (A) (A) (A) (A) (A) (A) (A) (A)
                 (A) (A) (A) (A) (A) (A) (A) (A) (A) (A) (A) (A)
                 (A) (A) (A) (A) (A) (A) (A) (A) (A) (A) (A) (A)
                 (A) (A) (A) (A) (A) (A) (A) (A) (A) (A) (A) (A)
                 (A) (A) (A) (A) (A) (A) (A) (A) (A) (A) (A) (A)
                 (A) (A) (A) (A) (A) (A) (A) (A) (A) (A) (A) (A)
                 (A) (A) (A) (A) (A) (A) (A) (A) (A) (A) (A) (A)
                 (A) (A) (A) (A) (A) (A)
 The electronic state is 1-A.
 Alpha  occ. eigenvalues --  -19.54369 -19.52067 -14.72849 -14.71335 -10.62613
 Alpha  occ. eigenvalues --  -10.60882 -10.54223 -10.52931 -10.48885  -1.15557
 Alpha  occ. eigenvalues --   -1.13446  -1.01297  -0.99862  -0.83443  -0.80157
 Alpha  occ. eigenvalues --   -0.76201  -0.65988  -0.64805  -0.59346  -0.54065
 Alpha  occ. eigenvalues --   -0.53217  -0.53158  -0.50810  -0.50483  -0.48289
 Alpha  occ. eigenvalues --   -0.47040  -0.45534  -0.45145  -0.43947  -0.43334
 Alpha  occ. eigenvalues --   -0.40052  -0.32488  -0.31453  -0.30023  -0.29584
 Alpha virt. eigenvalues --    0.02736   0.03004   0.04160   0.04668   0.04947
 Alpha virt. eigenvalues --    0.06797   0.06820   0.08000   0.09111   0.09123
 Alpha virt. eigenvalues --    0.09873   0.10997   0.11412   0.12135   0.13210
 Alpha virt. eigenvalues --    0.13702   0.14822   0.15721   0.15745   0.16662
 Alpha virt. eigenvalues --    0.18083   0.19478   0.20375   0.20558   0.21817
 Alpha virt. eigenvalues --    0.21960   0.22361   0.23328   0.23432   0.24286
 Alpha virt. eigenvalues --    0.26044   0.26968   0.27100   0.27546   0.28588
 Alpha virt. eigenvalues --    0.29058   0.29887   0.30040   0.30672   0.31951
 Alpha virt. eigenvalues --    0.32241   0.33658   0.35120   0.35852   0.36633
 Alpha virt. eigenvalues --    0.37362   0.38484   0.39847   0.40967   0.42972
 Alpha virt. eigenvalues --    0.44367   0.46194   0.47012   0.49076   0.53747
 Alpha virt. eigenvalues --    0.56578   0.69516   0.70357   0.70488   0.71222
 Alpha virt. eigenvalues --    0.72682   0.73839   0.77288   0.78706   0.79480
 Alpha virt. eigenvalues --    0.81839   0.86244   0.87965   0.91086   0.94003
 Alpha virt. eigenvalues --    0.97370   0.97881   1.01387   1.04923   1.09693
 Alpha virt. eigenvalues --    1.10070   1.11709   1.12355   1.14541   1.16565
 Alpha virt. eigenvalues --    1.18247   1.19675   1.22089   1.24676   1.26960
 Alpha virt. eigenvalues --    1.33525   1.34904   1.35101   1.37232   1.37596
 Alpha virt. eigenvalues --    1.44061   1.45152   1.49177   1.51107   1.53586
 Alpha virt. eigenvalues --    1.55856   1.60215   1.65875   1.72465   1.85066
 Alpha virt. eigenvalues --    2.09180   2.12913
          Condensed to atoms (all electrons):
               1          2          3          4          5          6
     1  C    6.535602   0.379098   0.412553   0.412555  -0.430906  -0.083852
     2  H    0.379098   0.528720  -0.026027  -0.026027  -0.061483   0.006360
     3  H    0.412553  -0.026027   0.467770  -0.022828  -0.058125  -0.004527
     4  H    0.412555  -0.026027  -0.022828   0.467774  -0.058124  -0.004527
     5  C   -0.430906  -0.061483  -0.058125  -0.058124   5.932023   0.416161
     6  O   -0.083852   0.006360  -0.004527  -0.004527   0.416161   8.485419
     7  N   -0.356831   0.008709   0.002804   0.002802  -0.140761  -0.230011
     8  H    0.011346   0.001306   0.000015   0.000015   0.019268   0.004676
     9  C   -0.295517  -0.001606  -0.004034  -0.004038  -0.874388  -0.062991
    10  H   -0.001137  -0.000003   0.000022  -0.000008   0.004272   0.001308
    11  H   -0.001130  -0.000003  -0.000008   0.000022   0.004268   0.001311
    12  C    0.177395   0.000400  -0.001054  -0.001053   0.543262   0.034418
    13  O   -0.001051  -0.000038   0.000009   0.000009   0.012923  -0.000624
    14  N    0.001052   0.000037  -0.000004  -0.000004   0.017196  -0.002147
    15  H    0.000051   0.000000   0.000000   0.000000   0.000092   0.000060
    16  C    0.001330   0.000018  -0.000001  -0.000001   0.006628  -0.000170
    17  H   -0.000002   0.000000   0.000000   0.000000  -0.000046   0.000000
    18  H    0.000010   0.000000   0.000000   0.000000   0.000073   0.000000
    19  H    0.000010   0.000000   0.000000   0.000000   0.000073   0.000000
               7          8          9         10         11         12
     1  C   -0.356831   0.011346  -0.295517  -0.001137  -0.001130   0.177395
     2  H    0.008709   0.001306  -0.001606  -0.000003  -0.000003   0.000400
     3  H    0.002804   0.000015  -0.004034   0.000022  -0.000008  -0.001054
     4  H    0.002802   0.000015  -0.004038  -0.000008   0.000022  -0.001053
     5  C   -0.140761   0.019268  -0.874388   0.004272   0.004268   0.543262
     6  O   -0.230011   0.004676  -0.062991   0.001308   0.001311   0.034418
     7  N    7.913216   0.262967   0.348061  -0.048739  -0.048731  -0.198362
     8  H    0.262967   0.298759  -0.097077   0.002125   0.002125   0.048521
     9  C    0.348061  -0.097077  12.158323   0.336151   0.336181  -4.392808
    10  H   -0.048739   0.002125   0.336151   0.487570  -0.036435  -0.004793
    11  H   -0.048731   0.002125   0.336181  -0.036435   0.487569  -0.004827
    12  C   -0.198362   0.048521  -4.392808  -0.004793  -0.004827   8.442720
    13  O    0.017252   0.012379   0.058036   0.000692   0.000688   0.242356
    14  N    0.011392   0.004694  -0.776066   0.012939   0.012935   0.423636
    15  H    0.000601  -0.000016   0.000465  -0.000173  -0.000175   0.007188
    16  C   -0.001278   0.001492  -0.122604   0.003205   0.003198  -0.070557
    17  H    0.000013   0.000000  -0.002833   0.000001   0.000001   0.014005
    18  H   -0.000080   0.000000  -0.001115   0.000016  -0.000009  -0.015681
    19  H   -0.000079   0.000000  -0.001120  -0.000009   0.000016  -0.015644
              13         14         15         16         17         18
     1  C   -0.001051   0.001052   0.000051   0.001330  -0.000002   0.000010
     2  H   -0.000038   0.000037   0.000000   0.000018   0.000000   0.000000
     3  H    0.000009  -0.000004   0.000000  -0.000001   0.000000   0.000000
     4  H    0.000009  -0.000004   0.000000  -0.000001   0.000000   0.000000
     5  C    0.012923   0.017196   0.000092   0.006628  -0.000046   0.000073
     6  O   -0.000624  -0.002147   0.000060  -0.000170   0.000000   0.000000
     7  N    0.017252   0.011392   0.000601  -0.001278   0.000013  -0.000080
     8  H    0.012379   0.004694  -0.000016   0.001492   0.000000   0.000000
     9  C    0.058036  -0.776066   0.000465  -0.122604  -0.002833  -0.001115
    10  H    0.000692   0.012939  -0.000173   0.003205   0.000001   0.000016
    11  H    0.000688   0.012935  -0.000175   0.003198   0.000001  -0.000009
    12  C    0.242356   0.423636   0.007188  -0.070557   0.014005  -0.015681
    13  O    8.477231  -0.230187   0.005760  -0.013965   0.001029   0.000810
    14  N   -0.230187   7.829770   0.279838   0.151073  -0.042264  -0.047671
    15  H    0.005760   0.279838   0.339408  -0.021530  -0.003559   0.001970
    16  C   -0.013965   0.151073  -0.021530   5.258269   0.379004   0.407855
    17  H    0.001029  -0.042264  -0.003559   0.379004   0.518004  -0.027058
    18  H    0.000810  -0.047671   0.001970   0.407855  -0.027058   0.487674
    19  H    0.000806  -0.047664   0.001967   0.407805  -0.027078  -0.031679
              19
     1  C    0.000010
     2  H    0.000000
     3  H    0.000000
     4  H    0.000000
     5  C    0.000073
     6  O    0.000000
     7  N   -0.000079
     8  H    0.000000
     9  C   -0.001120
    10  H   -0.000009
    11  H    0.000016
    12  C   -0.015644
    13  O    0.000806
    14  N   -0.047664
    15  H    0.001967
    16  C    0.407805
    17  H   -0.027078
    18  H   -0.031679
    19  H    0.487747
 Mulliken charges:
               1
     1  C   -0.760576
     2  H    0.190540
     3  H    0.233434
     4  H    0.233432
     5  C    0.667594
     6  O   -0.560863
     7  N   -0.542945
     8  H    0.427403
     9  C   -0.601023
    10  H    0.242994
    11  H    0.243003
    12  C    0.770879
    13  O   -0.584114
    14  N   -0.598557
    15  H    0.388051
    16  C   -0.389772
    17  H    0.190784
    18  H    0.224885
    19  H    0.224848
 Sum of Mulliken charges =   0.00000
 Mulliken charges with hydrogens summed into heavy atoms:
               1
     1  C   -0.103170
     5  C    0.667594
     6  O   -0.560863
     7  N   -0.115541
     9  C   -0.115025
    12  C    0.770879
    13  O   -0.584114
    14  N   -0.210505
    16  C    0.250746
 APT charges:
               1
     1  C   -1.851964
     2  H    0.327130
     3  H    0.683855
     4  H    0.683834
     5  C    0.487099
     6  O   -0.508529
     7  N   -0.520106
     8  H    0.542503
     9  C   -0.868088
    10  H    0.447838
    11  H    0.447874
    12  C    0.494919
    13  O   -0.595812
    14  N   -0.221585
    15  H    0.585996
    16  C   -1.871697
    17  H    0.785521
    18  H    0.475401
    19  H    0.475809
 Sum of APT charges =   0.00000
 APT charges with hydrogens summed into heavy atoms:
               1
     1  C   -0.157145
     5  C    0.487099
     6  O   -0.508529
     7  N    0.022397
     9  C    0.027624
    12  C    0.494919
    13  O   -0.595812
    14  N    0.364411
    16  C   -0.134965
 Electronic spatial extent (au):  <R**2>=           1976.7689
 Charge=              0.0000 electrons
 Dipole moment (field-independent basis, Debye):
    X=              3.0290    Y=             -0.2940    Z=             -0.0003  Tot=              3.0432
 Quadrupole moment (field-independent basis, Debye-Ang):
   XX=            -44.3885   YY=            -60.8071   ZZ=            -55.2472
   XY=            -18.2815   XZ=             -0.0003   YZ=              0.0000
 Traceless Quadrupole moment (field-independent basis, Debye-Ang):
   XX=              9.0925   YY=             -7.3262   ZZ=             -1.7663
   XY=            -18.2815   XZ=             -0.0003   YZ=              0.0000
 Octapole moment (field-independent basis, Debye-Ang**2):
  XXX=             50.0177  YYY=             -3.1631  ZZZ=              0.0024  XYY=             13.5613
  XXY=             17.5717  XXZ=             -0.0079  XZZ=             -1.8515  YZZ=             -0.3778
  YYZ=             -0.0029  XYZ=              0.0001
 Hexadecapole moment (field-independent basis, Debye-Ang**3):
 XXXX=          -1916.7244 YYYY=           -307.4936 ZZZZ=            -74.6297 XXXY=           -111.9627
 XXXZ=             -0.0089 YYYX=            -53.8883 YYYZ=              0.0079 ZZZX=              0.0083
 ZZZY=              0.0062 XXYY=           -456.2494 XXZZ=           -377.5345 YYZZ=            -62.9368
 XXYZ=              0.0126 YYXZ=             -0.0048 ZZXY=              7.9754
 N-N= 4.358063736924D+02 E-N=-1.936329038289D+03  KE= 4.529716962279D+02
  Exact polarizability:   0.000   0.000   0.000   0.000   0.000   0.000
 Approx polarizability:  96.184   1.153 110.355   0.002  -0.002  62.932
 No NMR shielding tensors so no spin-rotation constants.
 Leave Link  601 at Wed Sep  3 14:17:01 2025, MaxMem=  8053063680 cpu:         1.3
 (Enter /nexus/posix0/bmm/home/sucerqdl/sw/g09/l701.exe)
 Compute integral second derivatives.
 ... and contract with generalized density number  0.
 Leave Link  701 at Wed Sep  3 14:17:01 2025, MaxMem=  8053063680 cpu:         1.8
 (Enter /nexus/posix0/bmm/home/sucerqdl/sw/g09/l702.exe)
 L702 exits ... SP integral derivatives will be done elsewhere.
 Leave Link  702 at Wed Sep  3 14:17:01 2025, MaxMem=  8053063680 cpu:         0.3
 (Enter /nexus/posix0/bmm/home/sucerqdl/sw/g09/l703.exe)
 Compute integral second derivatives, UseDBF=F ICtDFT=           0.
 Integral derivatives from FoFJK, PRISM(SPDF).
 Calling FoFJK, ICntrl=    100147 FMM=F ISym2X=0 I1Cent= 0 IOpClX= 0 NMat=1 NMatS=1 NMatT=0.
 FoFJK:  IHMeth= 1 ICntrl=  100147 DoSepK=F KAlg= 0 I1Cent=   0 FoldK=F
 IRaf=         0 NMat=   1 IRICut=       1 DoRegI=T DoRafI=F ISym2E= 0.
 FoFCou: FMM=F IPFlag=           0 FMFlag=      100000 FMFlg1=         800
         NFxFlg=           0 DoJE=F BraDBF=F KetDBF=F FulRan=T
         wScrn=  0.000000 ICntrl=  100147 IOpCl=  0 I1Cent=           0 NGrid=           0
         NMat0=    1 NMatS0=      1 NMatT0=    0 NMatD0=    1 NMtDS0=    0 NMtDT0=    0
 Symmetry not used in FoFCou.
 Leave Link  703 at Wed Sep  3 14:17:08 2025, MaxMem=  8053063680 cpu:       107.6
 (Enter /nexus/posix0/bmm/home/sucerqdl/sw/g09/l716.exe)
 Dipole        = 1.19169249D+00-1.15652157D-01-1.25371829D-04
 Polarizability= 0.00000000D+00 0.00000000D+00 0.00000000D+00
                 0.00000000D+00 0.00000000D+00 0.00000000D+00
 ***** Axes restored to original set *****
 -------------------------------------------------------------------
 Center     Atomic                   Forces (Hartrees/Bohr)
 Number     Number              X              Y              Z
 -------------------------------------------------------------------
      1        6           0.017490314    0.003646264   -0.000002902
      2        1          -0.000992873    0.000277246   -0.000000117
      3        1           0.005937784   -0.000487767   -0.002944855
      4        1           0.005937953   -0.000486932    0.002945764
      5        6           0.007630507   -0.002029913   -0.000001758
      6        8           0.000778323   -0.004795285    0.000000230
      7        7          -0.003814624    0.006932495    0.000001739
      8        1          -0.000278804   -0.000492943   -0.000000375
      9        6          -0.002294978   -0.003177836    0.000001894
     10        1          -0.000393562   -0.000706412   -0.000003002
     11        1          -0.000393088   -0.000706536    0.000004140
     12        6           0.006749067    0.001324169    0.000003048
     13        8           0.000509145    0.004603111   -0.000000679
     14        7          -0.006217729   -0.008426934    0.000001074
     15        1           0.000201231    0.000522591   -0.000002886
     16        6          -0.017926794    0.006462878    0.000002900
     17        1          -0.010434363   -0.003705482   -0.000002131
     18        1          -0.001237545    0.000624411   -0.000021892
     19        1          -0.001249965    0.000622874    0.000019809
 -------------------------------------------------------------------
 Cartesian Forces:  Max     0.017926794 RMS     0.004668891
 FormGI is forming the generalized inverse of G from B-inverse, IUseBI=4.
 GSVD:  received Info=                   1 from GESDD.
 Leave Link  716 at Wed Sep  3 14:17:08 2025, MaxMem=  8053063680 cpu:         0.5
 (Enter /nexus/posix0/bmm/home/sucerqdl/sw/g09/l103.exe)

 GradGradGradGradGradGradGradGradGradGradGradGradGradGradGradGradGradGrad
 Berny optimization.
 Red2BG is reusing G-inverse.
 Internal  Forces:  Max     0.023163237 RMS     0.004852681
 Search for a local minimum.
 Step number   1 out of a maximum of   91
 All quantities printed in internal units (Hartrees-Bohrs-Radians)
 RMS Force = .40540D-02 SwitMx=.10000D-02 MixMth= 1
 Mixed Optimization -- RFO/linear search
 Second derivative matrix not updated -- analytic derivatives used.
 ITU=  0
     Eigenvalues ---    0.00000   0.00062   0.00170   0.00526   0.00733
     Eigenvalues ---    0.00841   0.02128   0.02789   0.04190   0.04823
     Eigenvalues ---    0.05472   0.05902   0.06182   0.06509   0.06564
     Eigenvalues ---    0.06952   0.08560   0.10701   0.12202   0.12720
     Eigenvalues ---    0.13324   0.13481   0.13984   0.14803   0.16563
     Eigenvalues ---    0.17872   0.18525   0.19864   0.20932   0.22043
     Eigenvalues ---    0.22484   0.23753   0.29027   0.29973   0.32555
     Eigenvalues ---    0.32933   0.33278   0.33652   0.33730   0.34197
     Eigenvalues ---    0.34883   0.34964   0.35101   0.35745   0.37630
     Eigenvalues ---    0.39094   0.48631   0.49238   0.74444   0.75249
     Eigenvalues --- 1000.000001000.000001000.000001000.000001000.00000
     Eigenvalues --- 1000.000001000.000001000.000001000.000001000.00000
     Eigenvalues --- 1000.000001000.000001000.000001000.000001000.00000
     Eigenvalues --- 1000.000001000.000001000.000001000.000001000.00000
     Eigenvalues --- 1000.000001000.000001000.000001000.000001000.00000
     Eigenvalues --- 1000.000001000.000001000.000001000.000001000.00000
     Eigenvalues --- 1000.00000
 Eigenvalue     1 is  -3.24D-06 should be greater than     0.000000 Eigenvector:
                          D30       D32       D31       D27       D29
   1                    0.42979   0.41275   0.41258   0.39471   0.37766
                          D28       D19       D21       D23       D17
   1                    0.37750  -0.05627  -0.05627  -0.05460  -0.05383
 RFO step:  Lambda=-4.19902312D-03 EMin=-3.23760246D-06
 Linear search not attempted -- first point.
 Iteration  1 RMS(Cart)=  0.08491493 RMS(Int)=  0.00221287
 Iteration  2 RMS(Cart)=  0.00294767 RMS(Int)=  0.00054873
 Iteration  3 RMS(Cart)=  0.00002016 RMS(Int)=  0.00054872
 Iteration  4 RMS(Cart)=  0.00000016 RMS(Int)=  0.00054872
 Iteration  1 RMS(Cart)=  0.00034826 RMS(Int)=  0.00005886
 Iteration  2 RMS(Cart)=  0.00003766 RMS(Int)=  0.00006163
 Iteration  3 RMS(Cart)=  0.00000407 RMS(Int)=  0.00006225
 Iteration  4 RMS(Cart)=  0.00000044 RMS(Int)=  0.00006232
 ITry= 1 IFail=0 DXMaxC= 2.48D-01 DCOld= 1.00D+10 DXMaxT= 3.00D-01 DXLimC= 3.00D+00 Rises=F
 Variable       Old X    -DE/DX   Delta X   Delta X   Delta X     New X
                                 (Linear)    (Quad)   (Total)
    R1        2.07269  -0.00045   0.00000  -0.00145  -0.00145   2.07124
    R2        2.08717  -0.00570   0.00000  -0.01725  -0.01725   2.06991
    R3        2.08717  -0.00570   0.00000  -0.01726  -0.01726   2.06992
    R4        2.95586  -0.00600   0.00000  -0.01212  -0.01052   2.94534
    R5       14.52386  -0.02316   0.00000   0.00000   0.00000  14.52386
    R6        2.35908  -0.00481   0.00000  -0.00002  -0.00002   2.35906
    R7        2.64077  -0.01384   0.00000  -0.03292  -0.03135   2.60942
    R8        1.91301   0.00046   0.00000  -0.00045  -0.00045   1.91256
    R9        2.81168  -0.00950   0.00000  -0.02470  -0.02315   2.78852
   R10        2.08041  -0.00043   0.00000  -0.00049  -0.00049   2.07992
   R11        2.08042  -0.00043   0.00000  -0.00050  -0.00050   2.07992
   R12        2.96276  -0.00637   0.00000  -0.02041  -0.01893   2.94383
   R13        2.35154  -0.00463   0.00000  -0.00392  -0.00392   2.34762
   R14        2.63231  -0.01397   0.00000  -0.03298  -0.03142   2.60089
   R15        1.90808   0.00052   0.00000   0.00145   0.00145   1.90953
   R16        2.84895  -0.00865   0.00000  -0.01796  -0.01630   2.83264
   R17        2.09439  -0.01014   0.00000  -0.03063  -0.03063   2.06376
   R18        2.07237  -0.00049   0.00000  -0.00151  -0.00151   2.07087
   R19        2.07238  -0.00048   0.00000  -0.00150  -0.00150   2.07088
    A1        1.91350   0.00077   0.00000   0.00420   0.00430   1.91780
    A2        1.91349   0.00077   0.00000   0.00420   0.00430   1.91779
    A3        1.95512   0.00274   0.00000   0.01822   0.01832   1.97344
    A4        1.86677   0.00402   0.00000   0.02973   0.02939   1.89616
    A5        1.90641  -0.00413   0.00000  -0.02802  -0.02811   1.87830
    A6        1.90641  -0.00413   0.00000  -0.02800  -0.02810   1.87831
    A7        2.08802  -0.00166   0.00000  -0.01591  -0.01674   2.07128
    A8        2.10423   0.00472   0.00000   0.02501   0.02667   2.13090
    A9        2.09093  -0.00306   0.00000  -0.00909  -0.00992   2.08100
   A10        2.14317   0.00496   0.00000   0.01172   0.01177   2.15493
   A11        2.11379  -0.01054   0.00000  -0.03478  -0.03487   2.07892
   A12        2.02623   0.00558   0.00000   0.02306   0.02310   2.04934
   A13        1.90735  -0.00202   0.00000  -0.00791  -0.00852   1.89883
   A14        1.90736  -0.00202   0.00000  -0.00793  -0.00854   1.89883
   A15        1.96958   0.00577   0.00000   0.02139   0.02329   1.99288
   A16        1.86042   0.00100   0.00000  -0.00324  -0.00310   1.85732
   A17        1.90799  -0.00149   0.00000  -0.00185  -0.00239   1.90560
   A18        1.90795  -0.00150   0.00000  -0.00184  -0.00237   1.90558
   A19        2.11087   0.00479   0.00000   0.01229   0.01218   2.12305
   A20        2.03220  -0.00932   0.00000  -0.02517  -0.02495   2.00725
   A21        2.14011   0.00453   0.00000   0.01289   0.01278   2.15289
   A22        2.05549  -0.00197   0.00000  -0.00921  -0.00988   2.04561
   A23        2.18652   0.00433   0.00000   0.02419   0.02554   2.21206
   A24        2.04118  -0.00236   0.00000  -0.01499  -0.01566   2.02551
   A25        1.91403  -0.00629   0.00000  -0.03584  -0.03598   1.87805
   A26        1.92217  -0.00045   0.00000  -0.00156  -0.00164   1.92053
   A27        1.92233  -0.00047   0.00000  -0.00162  -0.00169   1.92063
   A28        1.90628   0.00297   0.00000   0.01546   0.01532   1.92160
   A29        1.90620   0.00298   0.00000   0.01555   0.01541   1.92160
   A30        1.89257   0.00143   0.00000   0.00891   0.00889   1.90147
    D1       -3.14145   0.00000   0.00000   0.00001   0.00001  -3.14144
    D2        0.00016   0.00000   0.00000   0.00000   0.00000   0.00016
    D3       -1.01798  -0.00008   0.00000  -0.00200  -0.00219  -1.02017
    D4        2.12363  -0.00007   0.00000  -0.00202  -0.00220   2.12143
    D5        1.01827   0.00007   0.00000   0.00201   0.00220   1.02047
    D6       -2.12330   0.00008   0.00000   0.00200   0.00219  -2.12111
    D7       -0.00004   0.00000   0.00000   0.00008   0.00008   0.00003
    D8        3.14156   0.00000   0.00000   0.00001   0.00001   3.14157
    D9        3.14157   0.00000   0.00000   0.00007   0.00007  -3.14155
   D10       -0.00001   0.00000   0.00000  -0.00001  -0.00001  -0.00002
   D11        1.01465  -0.00053   0.00000  -0.00625  -0.00640   1.00826
   D12       -1.01504   0.00054   0.00000   0.00656   0.00670  -1.00834
   D13        3.14142   0.00000   0.00000   0.00015   0.00015   3.14157
   D14       -2.12693  -0.00054   0.00000  -0.00632  -0.00646  -2.13339
   D15        2.12656   0.00053   0.00000   0.00649   0.00663   2.13320
   D16       -0.00016   0.00000   0.00000   0.00008   0.00008  -0.00008
   D17        0.00021   0.00000   0.00000  -0.00007  -0.00007   0.00014
   D18       -3.14139   0.00000   0.00000  -0.00008  -0.00008  -3.14147
   D19        2.12662   0.00024   0.00000   0.00292   0.00313   2.12974
   D20       -1.01499   0.00024   0.00000   0.00292   0.00312  -1.01186
   D21       -2.12618  -0.00024   0.00000  -0.00305  -0.00326  -2.12944
   D22        1.01540  -0.00024   0.00000  -0.00305  -0.00326   1.01214
   D23        0.00011   0.00000   0.00000  -0.00007  -0.00007   0.00005
   D24        3.14158   0.00000   0.00000   0.00005   0.00005  -3.14155
   D25       -3.14149   0.00000   0.00000  -0.00007  -0.00007  -3.14156
   D26       -0.00002   0.00000   0.00000   0.00004   0.00004   0.00002
   D27       -3.14080   0.00000   0.00000   0.00015   0.00015  -3.14066
   D28       -1.04250  -0.00060   0.00000  -0.00439  -0.00434  -1.04684
   D29        1.04408   0.00059   0.00000   0.00462   0.00457   1.04865
   D30        0.00067   0.00000   0.00000   0.00026   0.00026   0.00093
   D31        2.09897  -0.00060   0.00000  -0.00428  -0.00423   2.09474
   D32       -2.09763   0.00060   0.00000   0.00473   0.00468  -2.09295
         Item               Value     Threshold  Converged?
 Maximum Force            0.011830     0.000450     NO 
 RMS     Force            0.004054     0.000300     NO 
 Maximum Displacement     0.247725     0.001800     NO 
 RMS     Displacement     0.087100     0.001200     NO 
 Predicted change in Energy=-2.095377D-03
 Lowest energy point so far.  Saving SCF results.
 GradGradGradGradGradGradGradGradGradGradGradGradGradGradGradGradGradGrad

 Leave Link  103 at Wed Sep  3 14:17:08 2025, MaxMem=  8053063680 cpu:         0.6
 (Enter /nexus/posix0/bmm/home/sucerqdl/sw/g09/l202.exe)
                          Input orientation:                          
 ---------------------------------------------------------------------
 Center     Atomic      Atomic             Coordinates (Angstroms)
 Number     Number       Type             X           Y           Z
 ---------------------------------------------------------------------
      1          6           0       -0.003203    0.062680   -0.000074
      2          1           0        0.089091   -1.029478    0.000242
      3          1           0       -0.551787    0.390410    0.889557
      4          1           0       -0.551709    0.389897   -0.889942
      5          6           0        1.374237    0.792004   -0.000209
      6          8           0        1.391131    2.040252   -0.000397
      7          7           0        2.569985    0.101412   -0.000136
      8          1           0        2.631074   -0.908824   -0.000021
      9          6           0        3.836445    0.858735   -0.000307
     10          1           0        3.855619    1.517820    0.880977
     11          1           0        3.855590    1.517464   -0.881860
     12          6           0        5.113495   -0.033403   -0.000168
     13          8           0        5.042064   -1.273655   -0.000082
     14          7           0        6.304768    0.655914   -0.000167
     15          1           0        6.254520    1.665142   -0.000213
     16          6           0        7.682493    0.065334   -0.000096
     17          1           0        8.396195    0.891951    0.000858
     18          1           0        7.824654   -0.555973    0.891346
     19          1           0        7.825447   -0.554613   -0.892365
 ---------------------------------------------------------------------
                    Distance matrix (angstroms):
                    1          2          3          4          5
     1  C    0.000000
     2  H    1.096050   0.000000
     3  H    1.095351   1.793792   0.000000
     4  H    1.095352   1.793788   1.779499   0.000000
     5  C    1.558607   2.229214   2.159289   2.159302   0.000000
     6  O    2.419702   3.334449   2.699801   2.699924   1.248362
     7  N    2.573479   2.726490   3.258916   3.258827   1.380844
     8  H    2.807710   2.544845   3.551050   3.550879   2.114817
     9  C    3.921302   4.196191   4.501974   4.501906   2.463113
    10  H    4.217130   4.631539   4.549324   4.881896   2.731401
    11  H    4.217135   4.631580   4.881920   4.549259   2.731431
    12  C    5.117600   5.122187   5.750361   5.750254   3.829275
    13  O    5.219244   4.958988   5.903536   5.903351   4.209501
    14  N    6.335806   6.440124   6.919137   6.919086   4.932409
    15  H    6.459643   6.728558   6.981579   6.981592   4.957775
    16  C    7.685697   7.671921   8.288578   8.288501   6.349972
    17  H    8.440236   8.526422   9.005982   9.006141   7.022670
    18  H    7.902703   7.801103   8.429734   8.615748   6.649796
    19  H    7.903481   7.802144   8.616633   8.430235   6.650371
                    6          7          8          9         10
     6  O    0.000000
     7  N    2.269096   0.000000
     8  H    3.199141   1.012081   0.000000
     9  C    2.715795   1.475622   2.139436   0.000000
    10  H    2.668980   2.106045   2.857318   1.100646   0.000000
    11  H    2.669053   2.106044   2.857263   1.100648   1.762837
    12  C    4.260990   2.547081   2.632257   1.557808   2.182879
    13  O    4.930648   2.828778   2.438437   2.449613   3.158520
    14  N    5.104922   3.775723   3.993049   2.476642   2.741830
    15  H    4.877834   4.002631   4.444622   2.548995   2.559868
    16  C    6.594053   5.112636   5.144494   3.927031   4.187000
    17  H    7.098558   5.879599   6.039819   4.559871   4.667243
    18  H    6.994699   5.370144   5.281318   4.324610   4.478166
    19  H    6.994952   5.370878   5.282354   4.324981   4.816561
                   11         12         13         14         15
    11  H    0.000000
    12  C    2.182864   0.000000
    13  O    3.158417   1.242307   0.000000
    14  N    2.741920   1.376332   2.306005   0.000000
    15  H    2.560074   2.046215   3.179085   1.010478   0.000000
    16  C    4.187049   2.570895   2.960534   1.498970   2.144410
    17  H    4.667714   3.410631   3.992499   2.104705   2.276972
    18  H    4.816313   2.901424   3.008740   2.138578   2.862438
    19  H    4.478100   2.902130   3.010052   2.138658   2.862003
                   16         17         18         19
    16  C    0.000000
    17  H    1.092093   0.000000
    18  H    1.095856   1.793352   0.000000
    19  H    1.095862   1.793361   1.783711   0.000000
 Stoichiometry    C5H10N2O2
 Framework group  C1[X(C5H10N2O2)]
 Deg. of freedom    51
 Full point group                 C1      NOp   1
 RotChk:  IX=0 Diff= 1.06D-03
 Largest Abelian subgroup         C1      NOp   1
 Largest concise Abelian subgroup C1      NOp   1
                         Standard orientation:                         
 ---------------------------------------------------------------------
 Center     Atomic      Atomic             Coordinates (Angstroms)
 Number     Number       Type             X           Y           Z
 ---------------------------------------------------------------------
      1          6           0       -3.675922    0.726508   -0.000105
      2          1           0       -3.458295    1.800736   -0.000420
      3          1           0       -4.258640    0.464228   -0.889736
      4          1           0       -4.258504    0.464729    0.889764
      5          6           0       -2.391779   -0.156798    0.000030
      6          8           0       -2.518947   -1.398667    0.000219
      7          7           0       -1.124369    0.391291   -0.000042
      8          1           0       -0.947185    1.387741   -0.000158
      9          6           0        0.046307   -0.507030    0.000128
     10          1           0       -0.010654   -1.163929   -0.881155
     11          1           0       -0.010642   -1.163572    0.881682
     12          6           0        1.417719    0.231884   -0.000011
     13          8           0        1.489792    1.472099   -0.000097
     14          7           0        2.521551   -0.590213   -0.000012
     15          1           0        2.355252   -1.586913    0.000034
     16          6           0        3.958191   -0.162455   -0.000083
     17          1           0        4.571805   -1.065861   -0.001036
     18          1           0        4.171053    0.438313   -0.891524
     19          1           0        4.171684    0.436870    0.892186
 ---------------------------------------------------------------------
 Rotational constants (GHZ):      5.0296127      0.6293498      0.5653208
 Leave Link  202 at Wed Sep  3 14:17:08 2025, MaxMem=  8053063680 cpu:         0.0
 (Enter /nexus/posix0/bmm/home/sucerqdl/sw/g09/l301.exe)
 Standard basis: 6-31+G (6D, 7F)
 Ernie: Thresh=  0.10000D-02 Tol=  0.10000D-05 Strict=F.
 There are   137 symmetry adapted cartesian basis functions of A   symmetry.
 There are   137 symmetry adapted basis functions of A   symmetry.
   137 basis functions,   274 primitive gaussians,   137 cartesian basis functions
    35 alpha electrons       35 beta electrons
       nuclear repulsion energy       438.5482570700 Hartrees.
 IExCor= 3226 DFT=T Ex+Corr=BMK ExCW=0 ScaHFX=  0.420000
 ScaDFX=  1.000000  1.000000  1.000000  1.000000 ScalE2=  1.000000  1.000000
 IRadAn=      0 IRanWt=     -1 IRanGd=            0 ICorTp=0 IEmpDi=  4
 NAtoms=   19 NActive=   19 NUniq=   19 SFac= 1.00D+00 NAtFMM=   60 NAOKFM=F Big=F
 Integral buffers will be    131072 words long.
 Raffenetti 2 integral format.
 Two-electron integral symmetry is turned on.
 Leave Link  301 at Wed Sep  3 14:17:08 2025, MaxMem=  8053063680 cpu:         0.5
 (Enter /nexus/posix0/bmm/home/sucerqdl/sw/g09/l302.exe)
 NPDir=0 NMtPBC=     1 NCelOv=     1 NCel=       1 NClECP=     1 NCelD=      1
         NCelK=      1 NCelE2=     1 NClLst=     1 CellRange=     0.0.
 One-electron integrals computed using PRISM.
 NBasis=   137 RedAO= T EigKep=  2.04D-05  NBF=   137
 NBsUse=   137 1.00D-06 EigRej= -1.00D+00 NBFU=   137
 Precomputing XC quadrature grid using
 IXCGrd= 4 IRadAn=           0 IRanWt=          -1 IRanGd=           0 AccXCQ= 0.00D+00.
 Generated NRdTot=       0 NPtTot=           0 NUsed=           0 NTot=          32
 NSgBfM=   137   137   137   137   137 MxSgAt=    19 MxSgA2=    19.
 Leave Link  302 at Wed Sep  3 14:17:08 2025, MaxMem=  8053063680 cpu:         1.8
 (Enter /nexus/posix0/bmm/home/sucerqdl/sw/g09/l303.exe)
 DipDrv:  MaxL=1.
 Leave Link  303 at Wed Sep  3 14:17:08 2025, MaxMem=  8053063680 cpu:         0.4
 (Enter /nexus/posix0/bmm/home/sucerqdl/sw/g09/l401.exe)
 Initial guess from the checkpoint file:  "G-stretched02.chk"
 B after Tr=     0.000000    0.000000    0.000000
         Rot=    0.999999    0.000022   -0.000005   -0.001239 Ang=   0.14 deg.
 Guess basis will be translated and rotated to current coordinates.
 JPrj=2 DoOrth=T DoCkMO=T.
 Generating alternative initial guess.
 ExpMin= 4.38D-02 ExpMax= 5.48D+03 ExpMxC= 8.25D+02 IAcc=2 IRadAn=         4 AccDes= 0.00D+00
 Harris functional with IExCor= 1009 and IRadAn=       4 diagonalized for initial guess.
 HarFok:  IExCor= 1009 AccDes= 0.00D+00 IRadAn=         4 IDoV= 1 UseB2=F ITyADJ=14
 ICtDFT=  3500011 ScaDFX=  1.000000  1.000000  1.000000  1.000000
 FoFCou: FMM=F IPFlag=           0 FMFlag=      100000 FMFlg1=           0
         NFxFlg=           0 DoJE=T BraDBF=F KetDBF=T FulRan=T
         wScrn=  0.000000 ICntrl=     500 IOpCl=  0 I1Cent=   200000004 NGrid=           0
         NMat0=    1 NMatS0=      1 NMatT0=    0 NMatD0=    1 NMtDS0=    0 NMtDT0=    0
 Petite list used in FoFCou.
 Harris En= -456.005635081501    
 Leave Link  401 at Wed Sep  3 14:17:09 2025, MaxMem=  8053063680 cpu:         3.6
 (Enter /nexus/posix0/bmm/home/sucerqdl/sw/g09/l502.exe)
 Closed shell SCF:
 Using DIIS extrapolation, IDIIS=  1040.
 Integral symmetry usage will be decided dynamically.
 Keep R1 ints in memory in canonical form, NReq=46076400.
 IVT=       78102 IEndB=       78102 NGot=  8053063680 MDV=  8008301248
 LenX=  8008301248 LenY=  8008282038
 Requested convergence on RMS density matrix=1.00D-08 within 128 cycles.
 Requested convergence on MAX density matrix=1.00D-06.
 Requested convergence on             energy=1.00D-06.
 No special actions if energy rises.
 FoFCou: FMM=F IPFlag=           0 FMFlag=           0 FMFlg1=           0
         NFxFlg=           0 DoJE=F BraDBF=F KetDBF=F FulRan=T
         wScrn=  0.000000 ICntrl=     600 IOpCl=  0 I1Cent=           0 NGrid=           0
         NMat0=    1 NMatS0=   9453 NMatT0=    0 NMatD0=    1 NMtDS0=    0 NMtDT0=    0
 Symmetry not used in FoFCou.

 Cycle   1  Pass 1  IDiag  1:
 E= -456.143394407146    
 DIIS: error= 5.84D-03 at cycle   1 NSaved=   1.
 NSaved= 1 IEnMin= 1 EnMin= -456.143394407146     IErMin= 1 ErrMin= 5.84D-03
 ErrMax= 5.84D-03  0.00D+00 EMaxC= 1.00D-01 BMatC= 5.51D-03 BMatP= 5.51D-03
 IDIUse=3 WtCom= 9.42D-01 WtEn= 5.84D-02
 Coeff-Com:  0.100D+01
 Coeff-En:   0.100D+01
 Coeff:      0.100D+01
 Gap=     0.508 Goal=   None    Shift=    0.000
 GapD=    0.508 DampG=2.000 DampE=1.000 DampFc=2.0000 IDamp=-1.
 RMSDP=3.66D-03 MaxDP=2.00D-01              OVMax= 2.09D-02

 Cycle   2  Pass 1  IDiag  1:
 E= -456.151778384334     Delta-E=       -0.008383977188 Rises=F Damp=F
 DIIS: error= 1.25D-03 at cycle   2 NSaved=   2.
 NSaved= 2 IEnMin= 2 EnMin= -456.151778384334     IErMin= 2 ErrMin= 1.25D-03
 ErrMax= 1.25D-03  0.00D+00 EMaxC= 1.00D-01 BMatC= 2.22D-04 BMatP= 5.51D-03
 IDIUse=3 WtCom= 9.88D-01 WtEn= 1.25D-02
 Coeff-Com: -0.375D-01 0.104D+01
 Coeff-En:   0.000D+00 0.100D+01
 Coeff:     -0.370D-01 0.104D+01
 Gap=     0.325 Goal=   None    Shift=    0.000
 RMSDP=5.67D-04 MaxDP=2.21D-02 DE=-8.38D-03 OVMax= 9.38D-03

 Cycle   3  Pass 1  IDiag  1:
 E= -456.151740373356     Delta-E=        0.000038010978 Rises=F Damp=F
 DIIS: error= 2.18D-03 at cycle   3 NSaved=   3.
 NSaved= 3 IEnMin= 2 EnMin= -456.151778384334     IErMin= 2 ErrMin= 1.25D-03
 ErrMax= 2.18D-03  0.00D+00 EMaxC= 1.00D-01 BMatC= 4.31D-04 BMatP= 2.22D-04
 IDIUse=3 WtCom= 1.76D-01 WtEn= 8.24D-01
 Coeff-Com: -0.613D-01 0.641D+00 0.421D+00
 Coeff-En:   0.000D+00 0.539D+00 0.461D+00
 Coeff:     -0.108D-01 0.557D+00 0.454D+00
 Gap=     0.327 Goal=   None    Shift=    0.000
 RMSDP=3.50D-04 MaxDP=1.31D-02 DE= 3.80D-05 OVMax= 7.56D-03

 Cycle   4  Pass 1  IDiag  1:
 E= -456.152052936567     Delta-E=       -0.000312563211 Rises=F Damp=F
 DIIS: error= 7.04D-04 at cycle   4 NSaved=   4.
 NSaved= 4 IEnMin= 4 EnMin= -456.152052936567     IErMin= 4 ErrMin= 7.04D-04
 ErrMax= 7.04D-04  0.00D+00 EMaxC= 1.00D-01 BMatC= 4.11D-05 BMatP= 2.22D-04
 IDIUse=3 WtCom= 9.93D-01 WtEn= 7.04D-03
 Coeff-Com: -0.207D-01 0.129D+00 0.261D+00 0.631D+00
 Coeff-En:   0.000D+00 0.000D+00 0.662D-01 0.934D+00
 Coeff:     -0.205D-01 0.128D+00 0.260D+00 0.633D+00
 Gap=     0.327 Goal=   None    Shift=    0.000
 RMSDP=1.16D-04 MaxDP=4.24D-03 DE=-3.13D-04 OVMax= 2.12D-03

 Cycle   5  Pass 1  IDiag  1:
 E= -456.152084541710     Delta-E=       -0.000031605144 Rises=F Damp=F
 DIIS: error= 9.34D-05 at cycle   5 NSaved=   5.
 NSaved= 5 IEnMin= 5 EnMin= -456.152084541710     IErMin= 5 ErrMin= 9.34D-05
 ErrMax= 9.34D-05  0.00D+00 EMaxC= 1.00D-01 BMatC= 1.87D-06 BMatP= 4.11D-05
 IDIUse=1 WtCom= 1.00D+00 WtEn= 0.00D+00
 Coeff-Com: -0.137D-02-0.276D-01 0.677D-01 0.309D+00 0.652D+00
 Coeff:     -0.137D-02-0.276D-01 0.677D-01 0.309D+00 0.652D+00
 Gap=     0.327 Goal=   None    Shift=    0.000
 RMSDP=2.19D-05 MaxDP=5.75D-04 DE=-3.16D-05 OVMax= 2.48D-04

 Cycle   6  Pass 1  IDiag  1:
 E= -456.152086078307     Delta-E=       -0.000001536597 Rises=F Damp=F
 DIIS: error= 2.63D-05 at cycle   6 NSaved=   6.
 NSaved= 6 IEnMin= 6 EnMin= -456.152086078307     IErMin= 6 ErrMin= 2.63D-05
 ErrMax= 2.63D-05  0.00D+00 EMaxC= 1.00D-01 BMatC= 9.36D-08 BMatP= 1.87D-06
 IDIUse=1 WtCom= 1.00D+00 WtEn= 0.00D+00
 Coeff-Com:  0.458D-03-0.191D-01 0.154D-01 0.106D+00 0.287D+00 0.611D+00
 Coeff:      0.458D-03-0.191D-01 0.154D-01 0.106D+00 0.287D+00 0.611D+00
 Gap=     0.327 Goal=   None    Shift=    0.000
 RMSDP=6.43D-06 MaxDP=3.21D-04 DE=-1.54D-06 OVMax= 7.60D-05

 Cycle   7  Pass 1  IDiag  1:
 E= -456.152086159216     Delta-E=       -0.000000080909 Rises=F Damp=F
 DIIS: error= 7.76D-06 at cycle   7 NSaved=   7.
 NSaved= 7 IEnMin= 7 EnMin= -456.152086159216     IErMin= 7 ErrMin= 7.76D-06
 ErrMax= 7.76D-06  0.00D+00 EMaxC= 1.00D-01 BMatC= 8.73D-09 BMatP= 9.36D-08
 IDIUse=1 WtCom= 1.00D+00 WtEn= 0.00D+00
 Coeff-Com:  0.322D-03-0.531D-02-0.800D-03 0.150D-01 0.553D-01 0.260D+00
 Coeff-Com:  0.675D+00
 Coeff:      0.322D-03-0.531D-02-0.800D-03 0.150D-01 0.553D-01 0.260D+00
 Coeff:      0.675D+00
 Gap=     0.327 Goal=   None    Shift=    0.000
 RMSDP=3.00D-06 MaxDP=9.25D-05 DE=-8.09D-08 OVMax= 3.95D-05

 Cycle   8  Pass 1  IDiag  1:
 E= -456.152086165745     Delta-E=       -0.000000006529 Rises=F Damp=F
 DIIS: error= 4.58D-06 at cycle   8 NSaved=   8.
 NSaved= 8 IEnMin= 8 EnMin= -456.152086165745     IErMin= 8 ErrMin= 4.58D-06
 ErrMax= 4.58D-06  0.00D+00 EMaxC= 1.00D-01 BMatC= 2.71D-09 BMatP= 8.73D-09
 IDIUse=1 WtCom= 1.00D+00 WtEn= 0.00D+00
 Coeff-Com:  0.149D-03-0.140D-02-0.201D-02-0.662D-03 0.535D-02 0.934D-01
 Coeff-Com:  0.420D+00 0.485D+00
 Coeff:      0.149D-03-0.140D-02-0.201D-02-0.662D-03 0.535D-02 0.934D-01
 Coeff:      0.420D+00 0.485D+00
 Gap=     0.327 Goal=   None    Shift=    0.000
 RMSDP=1.56D-06 MaxDP=8.91D-05 DE=-6.53D-09 OVMax= 1.34D-05

 Cycle   9  Pass 1  IDiag  1:
 E= -456.152086167917     Delta-E=       -0.000000002171 Rises=F Damp=F
 DIIS: error= 7.70D-07 at cycle   9 NSaved=   9.
 NSaved= 9 IEnMin= 9 EnMin= -456.152086167917     IErMin= 9 ErrMin= 7.70D-07
 ErrMax= 7.70D-07  0.00D+00 EMaxC= 1.00D-01 BMatC= 1.39D-10 BMatP= 2.71D-09
[...]
 ! D30   D(15,14,16,17)         60.7339         -DE/DX =    0.0                 !
 ! D31   D(15,14,16,18)       -180.0168         -DE/DX =    0.0                 !
 ! D32   D(15,14,16,19)        -60.7661         -DE/DX =    0.0                 !
 --------------------------------------------------------------------------------
 Lowest energy point so far.  Saving SCF results.
 GradGradGradGradGradGradGradGradGradGradGradGradGradGradGradGradGradGrad

 Largest change from initial coordinates is atom   19       1.131 Angstoms.
 Leave Link  103 at Wed Sep  3 14:19:08 2025, MaxMem=  8053063680 cpu:         0.5
 (Enter /nexus/posix0/bmm/home/sucerqdl/sw/g09/l202.exe)
                          Input orientation:                          
 ---------------------------------------------------------------------
 Center     Atomic      Atomic             Coordinates (Angstroms)
 Number     Number       Type             X           Y           Z
 ---------------------------------------------------------------------
      1          6           0        0.000548    0.067343    0.077765
      2          1           0        0.097842   -1.013231    0.233783
      3          1           0       -0.540799    0.517297    0.917065
      4          1           0       -0.557815    0.261415   -0.844466
      5          6           0        1.373064    0.795402   -0.041247
      6          8           0        1.381445    2.030557   -0.220629
      7          7           0        2.570805    0.113753    0.046061
      8          1           0        2.631757   -0.886170    0.190605
      9          6           0        3.839574    0.856737   -0.074113
     10          1           0        3.872989    1.634655    0.703684
     11          1           0        3.855961    1.381444   -1.041405
     12          6           0        5.110540   -0.036098    0.043067
     13          8           0        5.025904   -1.262235    0.221885
     14          7           0        6.304564    0.643494   -0.067227
     15          1           0        6.250350    1.643029   -0.211844
     16          6           0        7.685872    0.072337    0.002261
     17          1           0        8.232034    0.519245    0.840393
     18          1           0        7.590923   -1.006291    0.160126
     19          1           0        8.214551    0.260388   -0.938821
 ---------------------------------------------------------------------
                    Distance matrix (angstroms):
                    1          2          3          4          5
     1  C    0.000000
     2  H    1.096106   0.000000
     3  H    1.095418   1.793670   0.000000
     4  H    1.095420   1.793664   1.780100   0.000000
     5  C    1.558215   2.230019   2.158374   2.158378   0.000000
     6  O    2.418703   3.334483   2.698023   2.698104   1.248142
     7  N    2.570871   2.724129   3.256313   3.256241   1.380888
     8  H    2.800925   2.537466   3.544373   3.544249   2.113232
     9  C    3.922286   4.194298   4.503923   4.503874   2.467491
    10  H    4.224221   4.635066   4.558020   4.890254   2.740236
    11  H    4.224171   4.635088   4.890180   4.557925   2.740172
    12  C    5.111156   5.110606   5.745237   5.745126   3.829781
    13  O    5.200264   4.934363   5.885422   5.885281   4.200756
    14  N    6.331949   6.431076   6.916918   6.916815   4.933907
    15  H    6.451874   6.716223   6.975773   6.975685   4.953331
    16  C    7.685697   7.668785   8.289329   8.289215   6.354232
    17  H    8.279081   8.299490   8.773169   8.953585   6.920913
    18  H    7.666372   7.493446   8.307778   8.307720   6.476760
    19  H    8.278923   8.299282   8.953574   8.772874   6.920826
                    6          7          8          9         10
     6  O    0.000000
     7  N    2.271528   0.000000
     8  H    3.199953   1.012154   0.000000
     9  C    2.727952   1.475209   2.136966   0.000000
    10  H    2.686799   2.107437   2.856303   1.100564   0.000000
    11  H    2.686681   2.107427   2.856326   1.100563   1.763447
    12  C    4.271622   2.544153   2.624643   1.557639   2.181596
    13  O    4.931570   2.819888   2.423704   2.446434   3.154887
    14  N    5.117087   3.772852   3.986960   2.474206   2.736651
    15  H    4.884311   3.993025   4.433173   2.539501   2.547568
    16  C    6.605310   5.115423   5.147649   3.926211   4.179822
    17  H    7.095098   5.731048   5.810380   4.499326   4.501567
    18  H    6.922792   5.144812   4.960713   4.195040   4.592720
    19  H    7.095114   5.730913   5.810145   4.499309   4.841032
                   11         12         13         14         15
    11  H    0.000000
    12  C    2.181622   0.000000
    13  O    3.154950   1.241995   0.000000
    14  N    2.736649   1.378297   2.313084   0.000000
    15  H    2.547488   2.045388   3.182443   1.011397   0.000000
    16  C    4.179859   2.577938   2.984083   1.496350   2.138607
    17  H    4.840927   3.269230   3.719610   2.134094   2.509416
    18  H    4.592918   2.665948   2.578496   2.104329   2.992389
    19  H    4.501621   3.269082   3.719287   2.134127   2.509637
                   16         17         18         19
    16  C    0.000000
    17  H    1.095666   0.000000
    18  H    1.094247   1.789147   0.000000
    19  H    1.095674   1.798032   1.789155   0.000000
 Stoichiometry    C5H10N2O2
 Framework group  C1[X(C5H10N2O2)]
 Deg. of freedom    51
 Full point group                 C1      NOp   1
 RotChk:  IX=0 Diff= 3.13D-16
 Largest Abelian subgroup         C1      NOp   1
 Largest concise Abelian subgroup C1      NOp   1
                         Standard orientation:                         
 ---------------------------------------------------------------------
 Center     Atomic      Atomic             Coordinates (Angstroms)
 Number     Number       Type             X           Y           Z
 ---------------------------------------------------------------------
      1          6           0       -3.669825    0.730055    0.000025
      2          1           0       -3.447360    1.803348   -0.000086
      3          1           0       -4.253526    0.470874   -0.889952
      4          1           0       -4.253378    0.471039    0.890148
      5          6           0       -2.391391   -0.160810   -0.000003
      6          8           0       -2.526898   -1.401574    0.000005
      7          7           0       -1.122391    0.383699   -0.000022
      8          1           0       -0.945414    1.380261   -0.000013
      9          6           0        0.051260   -0.510047   -0.000045
     10          1           0        0.000177   -1.166652   -0.881805
     11          1           0        0.000122   -1.166747    0.881641
     12          6           0        1.417580    0.237890    0.000006
     13          8           0        1.476298    1.478496   -0.000005
     14          7           0        2.524375   -0.583516    0.000031
     15          1           0        2.354135   -1.580482    0.000086
     16          6           0        3.962832   -0.171322    0.000008
     17          1           0        4.459689   -0.552995   -0.898849
     18          1           0        3.994132    0.922477   -0.000359
     19          1           0        4.459591   -0.552396    0.899182
 ---------------------------------------------------------------------
 Rotational constants (GHZ):      5.0104321      0.6294234      0.5651724
 Leave Link  202 at Wed Sep  3 14:19:08 2025, MaxMem=  8053063680 cpu:         0.0
 (Enter /nexus/posix0/bmm/home/sucerqdl/sw/g09/l601.exe)
 Copying SCF densities to generalized density rwf, IOpCl= 0 IROHF=0.

 **********************************************************************

            Population analysis using the SCF density.

 **********************************************************************

 Orbital symmetries:
       Occupied  (A) (A) (A) (A) (A) (A) (A) (A) (A) (A) (A) (A)
                 (A) (A) (A) (A) (A) (A) (A) (A) (A) (A) (A) (A)
                 (A) (A) (A) (A) (A) (A) (A) (A) (A) (A) (A)
       Virtual   (A) (A) (A) (A) (A) (A) (A) (A) (A) (A) (A) (A)
                 (A) (A) (A) (A) (A) (A) (A) (A) (A) (A) (A) (A)
                 (A) (A) (A) (A) (A) (A) (A) (A) (A) (A) (A) (A)
                 (A) (A) (A) (A) (A) (A) (A) (A) (A) (A) (A) (A)
                 (A) (A) (A) (A) (A) (A) (A) (A) (A) (A) (A) (A)
                 (A) (A) (A) (A) (A) (A) (A) (A) (A) (A) (A) (A)
                 (A) (A) (A) (A) (A) (A) (A) (A) (A) (A) (A) (A)
                 (A) (A) (A) (A) (A) (A) (A) (A) (A) (A) (A) (A)
                 (A) (A) (A) (A) (A) (A)
 The electronic state is 1-A.
 Alpha  occ. eigenvalues --  -19.54061 -19.51819 -14.72692 -14.71416 -10.62455
 Alpha  occ. eigenvalues --  -10.60671 -10.53951 -10.52616 -10.48662  -1.15568
 Alpha  occ. eigenvalues --   -1.13644  -1.01866  -1.00393  -0.83795  -0.80505
 Alpha  occ. eigenvalues --   -0.76271  -0.66082  -0.65211  -0.59631  -0.54399
 Alpha  occ. eigenvalues --   -0.53358  -0.53131  -0.51006  -0.50906  -0.48727
 Alpha  occ. eigenvalues --   -0.46908  -0.45204  -0.45039  -0.43899  -0.43742
 Alpha  occ. eigenvalues --   -0.40040  -0.32400  -0.31411  -0.29922  -0.29658
 Alpha virt. eigenvalues --    0.03017   0.03195   0.04445   0.04700   0.05067
 Alpha virt. eigenvalues --    0.06743   0.06806   0.08040   0.09023   0.09125
 Alpha virt. eigenvalues --    0.10021   0.10918   0.11439   0.12281   0.13214
 Alpha virt. eigenvalues --    0.13239   0.15179   0.15846   0.15882   0.17576
 Alpha virt. eigenvalues --    0.17651   0.18831   0.20398   0.20610   0.21621
 Alpha virt. eigenvalues --    0.22321   0.22708   0.23614   0.24305   0.25105
 Alpha virt. eigenvalues --    0.26168   0.26619   0.27395   0.27446   0.28613
 Alpha virt. eigenvalues --    0.28963   0.29742   0.30124   0.31473   0.32199
 Alpha virt. eigenvalues --    0.32775   0.33608   0.35304   0.36184   0.36466
 Alpha virt. eigenvalues --    0.38705   0.38892   0.39583   0.41856   0.43341
 Alpha virt. eigenvalues --    0.45724   0.46258   0.47487   0.50054   0.54199
 Alpha virt. eigenvalues --    0.56767   0.69173   0.70321   0.70977   0.71371
 Alpha virt. eigenvalues --    0.72210   0.73309   0.77446   0.78493   0.79671
 Alpha virt. eigenvalues --    0.81748   0.86500   0.86887   0.91568   0.94162
 Alpha virt. eigenvalues --    0.98053   0.98115   1.01568   1.04954   1.10422
 Alpha virt. eigenvalues --    1.11638   1.12223   1.12335   1.14470   1.17261
 Alpha virt. eigenvalues --    1.18399   1.19578   1.21081   1.23844   1.27425
 Alpha virt. eigenvalues --    1.32281   1.34800   1.35591   1.37320   1.38073
 Alpha virt. eigenvalues --    1.44029   1.45509   1.48977   1.51535   1.52624
 Alpha virt. eigenvalues --    1.56426   1.60696   1.67346   1.73609   1.86376
 Alpha virt. eigenvalues --    2.10057   2.15375
          Condensed to atoms (all electrons):
               1          2          3          4          5          6
     1  C    6.617579   0.373580   0.424325   0.424305  -0.477894  -0.101151
     2  H    0.373580   0.528893  -0.026307  -0.026307  -0.057134   0.006591
     3  H    0.424325  -0.026307   0.465600  -0.021298  -0.067027  -0.005149
     4  H    0.424305  -0.026307  -0.021298   0.465605  -0.067010  -0.005149
     5  C   -0.477894  -0.057134  -0.067027  -0.067010   6.052247   0.430459
     6  O   -0.101151   0.006591  -0.005149  -0.005149   0.430459   8.505997
     7  N   -0.332751   0.009132   0.002493   0.002491  -0.174730  -0.244587
     8  H    0.010673   0.001045   0.000033   0.000033   0.021970   0.004345
     9  C   -0.350046  -0.000526  -0.005675  -0.005673  -0.996945  -0.053827
    10  H   -0.001337  -0.000002   0.000028  -0.000010   0.002280   0.001395
    11  H   -0.001338  -0.000002  -0.000010   0.000028   0.002275   0.001395
    12  C    0.187676   0.000375  -0.001029  -0.001028   0.607048   0.028311
    13  O    0.000150  -0.000023   0.000006   0.000006   0.012930  -0.000521
    14  N    0.001341   0.000041  -0.000005  -0.000005   0.023568  -0.003084
    15  H    0.000125   0.000000   0.000000   0.000000   0.001439   0.000112
    16  C    0.001500   0.000019   0.000000   0.000000   0.010881  -0.000631
    17  H    0.000004   0.000000   0.000000   0.000000   0.000040   0.000000
    18  H   -0.000008   0.000000   0.000000   0.000000  -0.000250   0.000001
    19  H    0.000004   0.000000   0.000000   0.000000   0.000040   0.000000
               7          8          9         10         11         12
     1  C   -0.332751   0.010673  -0.350046  -0.001337  -0.001338   0.187676
     2  H    0.009132   0.001045  -0.000526  -0.000002  -0.000002   0.000375
     3  H    0.002493   0.000033  -0.005675   0.000028  -0.000010  -0.001029
     4  H    0.002491   0.000033  -0.005673  -0.000010   0.000028  -0.001028
     5  C   -0.174730   0.021970  -0.996945   0.002280   0.002275   0.607048
     6  O   -0.244587   0.004345  -0.053827   0.001395   0.001395   0.028311
     7  N    7.977511   0.263298   0.320631  -0.050624  -0.050633  -0.207818
     8  H    0.263298   0.296129  -0.099960   0.002152   0.002152   0.051378
     9  C    0.320631  -0.099960  12.580556   0.339683   0.339678  -4.485992
    10  H   -0.050624   0.002152   0.339683   0.486553  -0.036783  -0.007298
    11  H   -0.050633   0.002152   0.339678  -0.036783   0.486553  -0.007282
    12  C   -0.207818   0.051378  -4.485992  -0.007298  -0.007282   8.443664
    13  O    0.016565   0.011401   0.080003   0.000546   0.000548   0.239218
    14  N    0.013254   0.004795  -0.846729   0.015103   0.015107   0.431142
    15  H    0.000893  -0.000014   0.020240  -0.000159  -0.000159  -0.014699
    16  C    0.002384   0.001728  -0.263936   0.004221   0.004221  -0.031680
    17  H   -0.000058   0.000000   0.008667   0.000021  -0.000008  -0.003102
    18  H   -0.000187  -0.000001  -0.009524  -0.000009  -0.000009  -0.007859
    19  H   -0.000058   0.000000   0.008663  -0.000008   0.000021  -0.003107
              13         14         15         16         17         18
     1  C    0.000150   0.001341   0.000125   0.001500   0.000004  -0.000008
     2  H   -0.000023   0.000041   0.000000   0.000019   0.000000   0.000000
     3  H    0.000006  -0.000005   0.000000   0.000000   0.000000   0.000000
     4  H    0.000006  -0.000005   0.000000   0.000000   0.000000   0.000000
     5  C    0.012930   0.023568   0.001439   0.010881   0.000040  -0.000250
     6  O   -0.000521  -0.003084   0.000112  -0.000631   0.000000   0.000001
     7  N    0.016565   0.013254   0.000893   0.002384  -0.000058  -0.000187
     8  H    0.011401   0.004795  -0.000014   0.001728   0.000000  -0.000001
     9  C    0.080003  -0.846729   0.020240  -0.263936   0.008667  -0.009524
    10  H    0.000546   0.015103  -0.000159   0.004221   0.000021  -0.000009
    11  H    0.000548   0.015107  -0.000159   0.004221  -0.000008  -0.000009
    12  C    0.239218   0.431142  -0.014699  -0.031680  -0.003102  -0.007859
    13  O    8.510575  -0.242244   0.005850  -0.043993   0.000941   0.006278
    14  N   -0.242244   7.848397   0.277493   0.196333  -0.050665  -0.056407
    15  H    0.005850   0.277493   0.350818  -0.023027  -0.001109   0.002716
    16  C   -0.043993   0.196333  -0.023027   5.371023   0.386162   0.422943
    17  H    0.000941  -0.050665  -0.001109   0.386162   0.514407  -0.022899
    18  H    0.006278  -0.056407   0.002716   0.422943  -0.022899   0.441439
    19  H    0.000941  -0.050666  -0.001107   0.386171  -0.035828  -0.022901
              19
     1  C    0.000004
     2  H    0.000000
     3  H    0.000000
     4  H    0.000000
     5  C    0.000040
     6  O    0.000000
     7  N   -0.000058
     8  H    0.000000
     9  C    0.008663
    10  H   -0.000008
    11  H    0.000021
    12  C   -0.003107
    13  O    0.000941
    14  N   -0.050666
    15  H   -0.001107
    16  C    0.386171
    17  H   -0.035828
    18  H   -0.022901
    19  H    0.514399
 Mulliken charges:
               1
     1  C   -0.776736
     2  H    0.190626
     3  H    0.234014
     4  H    0.234012
     5  C    0.675814
     6  O   -0.564505
     7  N   -0.547207
     8  H    0.428840
     9  C   -0.579289
    10  H    0.244248
    11  H    0.244246
    12  C    0.782081
    13  O   -0.599178
    14  N   -0.576770
    15  H    0.380587
    16  C   -0.424320
    17  H    0.203426
    18  H    0.246675
    19  H    0.203436
 Sum of Mulliken charges =   0.00000
 Mulliken charges with hydrogens summed into heavy atoms:
               1
     1  C   -0.118084
     5  C    0.675814
     6  O   -0.564505
     7  N   -0.118367
     9  C   -0.090795
    12  C    0.782081
    13  O   -0.599178
    14  N   -0.196183
    16  C    0.229218
 Electronic spatial extent (au):  <R**2>=           1950.4294
 Charge=              0.0000 electrons
 Dipole moment (field-independent basis, Debye):
    X=              2.7512    Y=             -0.3142    Z=              0.0000  Tot=              2.7690
 Quadrupole moment (field-independent basis, Debye-Ang):
   XX=            -44.5643   YY=            -61.3160   ZZ=            -55.0206
   XY=            -17.8907   XZ=             -0.0002   YZ=             -0.0001
 Traceless Quadrupole moment (field-independent basis, Debye-Ang):
   XX=              9.0693   YY=             -7.6823   ZZ=             -1.3869
   XY=            -17.8907   XZ=             -0.0002   YZ=             -0.0001
 Octapole moment (field-independent basis, Debye-Ang**2):
  XXX=             43.0044  YYY=             -1.6073  ZZZ=              0.0008  XYY=             12.2359
  XXY=             15.6240  XXZ=             -0.0003  XZZ=             -1.3269  YZZ=             -1.8266
  YYZ=             -0.0004  XYZ=             -0.0007
 Hexadecapole moment (field-independent basis, Debye-Ang**3):
 XXXX=          -1914.3480 YYYY=           -307.4192 ZZZZ=            -74.1569 XXXY=            -92.8413
 XXXZ=             -0.0024 YYYX=            -50.4067 YYYZ=             -0.0014 ZZZX=              0.0011
 ZZZY=              0.0004 XXYY=           -452.9036 XXZZ=           -366.9005 YYZZ=            -62.7233
 XXYZ=              0.0014 YYXZ=             -0.0019 ZZXY=              2.0264
 N-N= 4.385426461281D+02 E-N=-1.941950902842D+03  KE= 4.531865948584D+02
 No NMR shielding tensors so no spin-rotation constants.
 Leave Link  601 at Wed Sep  3 14:19:08 2025, MaxMem=  8053063680 cpu:         1.3
 (Enter /nexus/posix0/bmm/home/sucerqdl/sw/g09/l9999.exe)
 1\1\GINC-SLURM-ORBIT-CPU1\FOpt\RBMK\6-31+G\C5H10N2O2\SUCERQDL\03-Sep-2
 025\0\\#P bmk/6-31+g opt(modredun,calcfc)\\Gaussian input prepared by 
 ASE\\0,1\C,0.0005480717,0.0673427822,0.077765492\H,0.0978420973,-1.013
 2311383,0.2337833762\H,-0.54079928,0.5172966763,0.9170652306\H,-0.5578
 154333,0.2614151659,-0.8444656084\C,1.3730638762,0.7954017395,-0.04124
 73671\O,1.381444561,2.0305573149,-0.2206287458\N,2.5708049273,0.113753
 4242,0.0460614123\H,2.6317574591,-0.8861704164,0.1906047689\C,3.839573
 6344,0.8567369766,-0.0741133513\H,3.8729891128,1.6346545427,0.70368448
 24\H,3.8559614301,1.3814439472,-1.0414054193\C,5.1105395828,-0.0360982
 58,0.0430669201\O,5.025903746,-1.2622352701,0.2218850164\N,6.304563587
 5,0.6434935484,-0.0672265239\H,6.2503495532,1.64302852,-0.2118439703\C
 ,7.6858724598,0.0723371596,0.0022614417\H,8.23203441,0.5192445297,0.84
 03934104\H,7.5909227405,-1.0062911494,0.1601264283\H,8.2145512251,0.26
 03882,-0.9388213607\\Version=ES64L-G09RevD.01\State=1-A\HF=-456.152631
 5\RMSD=9.229e-09\RMSF=4.494e-03\Dipole=1.0893696,-0.0034393,-0.0101084
 \Quadrupole=9.6216615,-8.4670309,-1.1546306,11.3876049,-1.7565464,0.96
 8443\PG=C01 [X(C5H10N2O2)]\\@


 TERRY FORSTER, PORTLY ATLANTA BRAVES RELIEVER,
 ANNOUNCING THAT HE WAS GOING TO A FAT FARM:
 "A WAIST IS A TERRIBLE THING TO MIND."
 Job cpu time:       0 days  0 hours 34 minutes 13.3 seconds.
 File lengths (MBytes):  RWF=    132 Int=      0 D2E=      0 Chk=      3 Scr=      2
 Normal termination of Gaussian 09 at Wed Sep  3 14:19:08 2025.
