Gaussian input prepared by ASE                                          
FOpt      RBMK                                                        6-31+G              
Number of atoms                            I               19
Info1-9                                    I   N=           9
          30          30           0           0           0         110
           2          18        -402
Full Title                                 C   N=           3
Gaussian input prepared by ASE      
Route                                      C   N=           3
#P bmk/6-31+g opt(modredun,calcfc)  
Charge                                     I                0
Multiplicity                               I                1
Number of electrons                        I               70
Number of alpha electrons                  I               35
Number of beta electrons                   I               35
Number of basis functions                  I              137
Number of independent functions            I              137
Number of point charges in /Mol/           I                0
Number of translation vectors              I                0
Atomic numbers                             I   N=          19
           6           1           1           1           6           8
           7           1           6           1           1           6
           8           7           1           6           1           1
           1
Nuclear charges                            R   N=          19
  6.00000000E+00  1.00000000E+00  1.00000000E+00  1.00000000E+00  6.00000000E+00
  8.00000000E+00  7.00000000E+00  1.00000000E+00  6.00000000E+00  1.00000000E+00
  1.00000000E+00  6.00000000E+00  8.00000000E+00  7.00000000E+00  1.00000000E+00
  6.00000000E+00  1.00000000E+00  1.00000000E+00  1.00000000E+00
Current cartesian coordinates              R   N=          57
  6.45446775E+00  1.73410595E+00  9.99173351E-05  5.67943313E+00  3.65407133E+00
 -2.11016501E-04  7.65001646E+00  1.47917128E+00  1.67385535E+00  7.65055038E+00
  1.47882269E+00 -1.67322353E+00  4.41970482E+00 -2.92554253E-01 -2.01304403E-05
  4.94817233E+00 -2.59127496E+00 -2.01127058E-05  1.98441702E+00  5.19015257E-01
 -8.71104939E-05  1.50047324E+00  2.37023985E+00 -1.29267119E-05 -9.51656352E-02
 -1.25931260E+00 -4.97923281E-05  7.82376698E-03 -2.49420724E+00  1.67140082E+00
  7.71649933E-03 -2.49422892E+00 -1.67149436E+00 -2.57428606E+00  2.29407884E-01
 -7.84097679E-06 -2.59743330E+00  2.58443298E+00 -8.61452653E-05 -4.71963805E+00
 -1.16746222E+00  6.07765402E-05 -4.60801628E+00 -3.07092040E+00  1.52597053E-04
 -7.20780999E+00  3.13976950E-02  5.70506766E-05 -8.65834795E+00 -1.44067700E+00
 -9.31819155E-04 -7.43567055E+00  1.22595028E+00  1.67807923E+00 -7.43480894E+00
  1.22737465E+00 -1.67705517E+00
Number of symbols in /Mol/                 I                0
Redundant internal dimensions              I   N=           4
          80          18          30          32
Redundant internal coordinate indices      I   N=         320
           1           2           0           0           1           3
           0           0           1           4           0           0
           1           5           0           0           5           6
           0           0           5           7           0           0
           7           8           0           0           7           9
           0           0           9          10           0           0
           9          11           0           0           9          12
           0           0          12          13           0           0
          12          14           0           0          14          15
           0           0          14          16           0           0
          16          17           0           0          16          18
           0           0          16          19           0           0
           2           1           3           0           2           1
           4           0           2           1           5           0
           3           1           4           0           3           1
           5           0           4           1           5           0
           1           5           6           0           1           5
           7           0           6           5           7           0
           5           7           8           0           5           7
           9           0           8           7           9           0
           7           9          10           0           7           9
          11           0           7           9          12           0
          10           9          11           0          10           9
          12           0          11           9          12           0
           9          12          13           0           9          12
          14           0          13          12          14           0
          12          14          15           0          12          14
          16           0          15          14          16           0
          14          16          17           0          14          16
          18           0          14          16          19           0
          17          16          18           0          17          16
          19           0          18          16          19           0
           2           1           5           6           2           1
           5           7           3           1           5           6
           3           1           5           7           4           1
           5           6           4           1           5           7
           1           5           7           8           1           5
           7           9           6           5           7           8
           6           5           7           9           5           7
           9          10           5           7           9          11
           5           7           9          12           8           7
           9          10           8           7           9          11
           8           7           9          12           7           9
          12          13           7           9          12          14
          10           9          12          13          10           9
          12          14          11           9          12          13
          11           9          12          14           9          12
          14          15           9          12          14          16
          13          12          14          15          13          12
          14          16          12          14          16          17
          12          14          16          18          12          14
          16          19          15          14          16          17
          15          14          16          18          15          14
          16          19
Redundant internal coordinates             R   N=          80
  2.07049409E+00  2.07262772E+00  2.07262987E+00  2.87186556E+00  2.35868497E+00
  2.56695768E+00  1.91343515E+00  2.73625912E+00  2.08070150E+00  2.08070421E+00
  2.89176880E+00  2.35513885E+00  2.56003540E+00  1.90672822E+00  2.76193133E+00
  2.06665557E+00  2.07235005E+00  2.07234042E+00  1.90720553E+00  1.90721562E+00
  1.97053229E+00  1.87962587E+00  1.89855770E+00  1.89855347E+00  2.12822950E+00
  2.03651034E+00  2.11844547E+00  2.14817151E+00  2.11244471E+00  2.02256909E+00
  1.92635561E+00  1.92638078E+00  1.89333427E+00  1.86566177E+00  1.92619461E+00
  1.92617756E+00  2.12141452E+00  2.02364461E+00  2.13812618E+00  2.08938024E+00
  2.11543322E+00  2.07837184E+00  1.89982456E+00  1.92757679E+00  1.92749952E+00
  1.91112817E+00  1.91113695E+00  1.88660647E+00  3.14143803E+00 -1.72491870E-04
 -1.02157548E+00  2.11999930E+00  1.02125641E+00 -2.12035412E+00 -2.95984890E-05
 -3.14152737E+00  3.14154529E+00  4.75210203E-05  1.02919467E+00 -1.02929899E+00
  3.14154326E+00 -2.11230962E+00  2.11238203E+00  3.89733967E-05  3.83898509E-05
 -3.14157944E+00  2.11248634E+00 -1.02913149E+00 -2.11243007E+00  1.02913741E+00
  4.32413187E-05 -3.14157175E+00 -3.14157485E+00 -4.53193776E-06  3.14105535E+00
 -1.04346726E+00  1.04242918E+00 -5.59502829E-04  2.09810320E+00 -2.09918568E+00
ZRed-IntVec                                I   N=          80
           0           0           0           0           0           0
           0           0           0           0           0           0
           0           0           0           0           0           0
           0           0           0           0           0           0
           0           0           0           0           0           0
           0           0           0           0           0           0
           0           0           0           0           0           0
           0           0           0           0           0           0
           0           0           0           0           0           0
           0           0           0           0           0           0
           0           0           0           0           0           0
           0           0           0           0           0           0
           0           0           0           0           0           0
           0           0
ZRed-FPVec                                 R   N=          80
  0.00000000E+00  0.00000000E+00  0.00000000E+00  0.00000000E+00  0.00000000E+00
  0.00000000E+00  0.00000000E+00  0.00000000E+00  0.00000000E+00  0.00000000E+00
  0.00000000E+00  0.00000000E+00  0.00000000E+00  0.00000000E+00  0.00000000E+00
  0.00000000E+00  0.00000000E+00  0.00000000E+00  0.00000000E+00  0.00000000E+00
  0.00000000E+00  0.00000000E+00  0.00000000E+00  0.00000000E+00  0.00000000E+00
  0.00000000E+00  0.00000000E+00  0.00000000E+00  0.00000000E+00  0.00000000E+00
  0.00000000E+00  0.00000000E+00  0.00000000E+00  0.00000000E+00  0.00000000E+00
  0.00000000E+00  0.00000000E+00  0.00000000E+00  0.00000000E+00  0.00000000E+00
  0.00000000E+00  0.00000000E+00  0.00000000E+00  0.00000000E+00  0.00000000E+00
  0.00000000E+00  0.00000000E+00  0.00000000E+00  0.00000000E+00  0.00000000E+00
  0.00000000E+00  0.00000000E+00  0.00000000E+00  0.00000000E+00  0.00000000E+00
  0.00000000E+00  0.00000000E+00  0.00000000E+00  0.00000000E+00  0.00000000E+00
  0.00000000E+00  0.00000000E+00  0.00000000E+00  0.00000000E+00  0.00000000E+00
  0.00000000E+00  0.00000000E+00  0.00000000E+00  0.00000000E+00  0.00000000E+00
  0.00000000E+00  0.00000000E+00  0.00000000E+00  0.00000000E+00  0.00000000E+00
  0.00000000E+00  0.00000000E+00  0.00000000E+00  0.00000000E+00  0.00000000E+00
ZRed-Constraint1                           R   N=          80
  2.05702570E+00  2.05607066E+00  2.05850080E+00  2.84853885E+00  2.29397497E+00
  2.49343617E+00  1.90703237E+00  2.74745644E+00  2.06222723E+00  2.04448806E+00
  2.85611335E+00  2.30840702E+00  2.52177562E+00  1.90675146E+00  2.75854710E+00
  2.04553580E+00  2.05745967E+00  2.05250706E+00  1.91665492E+00  1.90942600E+00
  1.93123732E+00  1.92268121E+00  1.89040372E+00  1.89328603E+00  2.10774933E+00
  2.02447236E+00  2.15095596E+00  2.13212401E+00  2.08971685E+00  2.06133311E+00
  1.88615614E+00  1.90475935E+00  1.95665455E+00  1.89902120E+00  1.90646589E+00
  1.90988357E+00  2.11141363E+00  2.01899021E+00  2.15274258E+00  2.10571404E+00
  2.08446480E+00  2.09294075E+00  1.92085071E+00  1.88281952E+00  1.90041534E+00
  1.92946773E+00  1.92574224E+00  1.90375118E+00  3.13120002E+00 -6.31920233E-03
 -1.05024428E+00  2.09542180E+00  1.03651873E+00 -2.10100049E+00  2.46975978E-03
  3.13884566E+00 -3.13493795E+00  1.43795112E-03  1.03722049E+00 -1.02525804E+00
  3.13915417E+00 -2.10937878E+00  2.11132800E+00 -7.44509998E-03  9.99109059E-03
 -3.14077090E+00  2.10009576E+00 -1.05066623E+00 -2.10583510E+00  1.02658822E+00
 -5.54928617E-03 -3.13481103E+00  3.12663259E+00 -2.62915637E-03  3.13933889E+00
 -1.03738122E+00  1.02645543E+00  9.98551028E-03  2.11645071E+00 -2.10289795E+00
ZRed-Constraint2                           R   N=          80
  0.00000000E+00  0.00000000E+00  0.00000000E+00  0.00000000E+00  0.00000000E+00
  0.00000000E+00  0.00000000E+00  0.00000000E+00  0.00000000E+00  0.00000000E+00
  0.00000000E+00  0.00000000E+00  0.00000000E+00  0.00000000E+00  0.00000000E+00
  0.00000000E+00  0.00000000E+00  0.00000000E+00  0.00000000E+00  0.00000000E+00
  0.00000000E+00  0.00000000E+00  0.00000000E+00  0.00000000E+00  0.00000000E+00
  0.00000000E+00  0.00000000E+00  0.00000000E+00  0.00000000E+00  0.00000000E+00
  0.00000000E+00  0.00000000E+00  0.00000000E+00  0.00000000E+00  0.00000000E+00
  0.00000000E+00  0.00000000E+00  0.00000000E+00  0.00000000E+00  0.00000000E+00
  0.00000000E+00  0.00000000E+00  0.00000000E+00  0.00000000E+00  0.00000000E+00
  0.00000000E+00  0.00000000E+00  0.00000000E+00  0.00000000E+00  0.00000000E+00
  0.00000000E+00  0.00000000E+00  0.00000000E+00  0.00000000E+00  0.00000000E+00
  0.00000000E+00  0.00000000E+00  0.00000000E+00  0.00000000E+00  0.00000000E+00
  0.00000000E+00  0.00000000E+00  0.00000000E+00  0.00000000E+00  0.00000000E+00
  0.00000000E+00  0.00000000E+00  0.00000000E+00  0.00000000E+00  0.00000000E+00
  0.00000000E+00  0.00000000E+00  0.00000000E+00  0.00000000E+00  0.00000000E+00
  0.00000000E+00  0.00000000E+00  0.00000000E+00  0.00000000E+00  0.00000000E+00
Force Field                                I                0
Atom Types                                 C   N=          19
                                                            
                                                            
                                                            
                                                
Int Atom Types                             I   N=          19
           0           0           0           0           0           0
           0           0           0           0           0           0
           0           0           0           0           0           0
           0
MM charges                                 R   N=          19
  0.00000000E+00  0.00000000E+00  0.00000000E+00  0.00000000E+00  0.00000000E+00
  0.00000000E+00  0.00000000E+00  0.00000000E+00  0.00000000E+00  0.00000000E+00
  0.00000000E+00  0.00000000E+00  0.00000000E+00  0.00000000E+00  0.00000000E+00
  0.00000000E+00  0.00000000E+00  0.00000000E+00  0.00000000E+00
Integer atomic weights                     I   N=          19
          12           1           1           1          12          16
          14           1          12           1           1          12
          16          14           1          12           1           1
           1
Real atomic weights                        R   N=          19
  1.20000000E+01  1.00782504E+00  1.00782504E+00  1.00782504E+00  1.20000000E+01
  1.59949146E+01  1.40030740E+01  1.00782504E+00  1.20000000E+01  1.00782504E+00
  1.00782504E+00  1.20000000E+01  1.59949146E+01  1.40030740E+01  1.00782504E+00
  1.20000000E+01  1.00782504E+00  1.00782504E+00  1.00782504E+00
Atom fragment info                         I   N=          19
           0           0           0           0           0           0
           0           0           0           0           0           0
           0           0           0           0           0           0
           0
Atom residue num                           I   N=          19
           0           0           0           0           0           0
           0           0           0           0           0           0
           0           0           0           0           0           0
           0
Nuclear spins                              I   N=          19
           0           1           1           1           0           0
           2           1           0           1           1           0
           0           2           1           0           1           1
           1
Nuclear ZEff                               R   N=          19
 -3.60000000E+00 -1.00000000E+00 -1.00000000E+00 -1.00000000E+00 -3.60000000E+00
 -5.60000000E+00 -4.55000000E+00 -1.00000000E+00 -3.60000000E+00 -1.00000000E+00
 -1.00000000E+00 -3.60000000E+00 -5.60000000E+00 -4.55000000E+00 -1.00000000E+00
 -3.60000000E+00 -1.00000000E+00 -1.00000000E+00 -1.00000000E+00
Nuclear ZNuc                               R   N=          19
  6.00000000E+00  1.00000000E+00  1.00000000E+00  1.00000000E+00  6.00000000E+00
  8.00000000E+00  7.00000000E+00  1.00000000E+00  6.00000000E+00  1.00000000E+00
  1.00000000E+00  6.00000000E+00  8.00000000E+00  7.00000000E+00  1.00000000E+00
  6.00000000E+00  1.00000000E+00  1.00000000E+00  1.00000000E+00
Nuclear QMom                               R   N=          19
  0.00000000E+00  0.00000000E+00  0.00000000E+00  0.00000000E+00  0.00000000E+00
  0.00000000E+00  2.04400000E+00  0.00000000E+00  0.00000000E+00  0.00000000E+00
  0.00000000E+00  0.00000000E+00  0.00000000E+00  2.04400000E+00  0.00000000E+00
  0.00000000E+00  0.00000000E+00  0.00000000E+00  0.00000000E+00
Nuclear GFac                               R   N=          19
  0.00000000E+00  2.79284600E+00  2.79284600E+00  2.79284600E+00  0.00000000E+00
  0.00000000E+00  4.03761000E-01  2.79284600E+00  0.00000000E+00  2.79284600E+00
  2.79284600E+00  0.00000000E+00  0.00000000E+00  4.03761000E-01  2.79284600E+00
  0.00000000E+00  2.79284600E+00  2.79284600E+00  2.79284600E+00
MicOpt                                     I   N=          19
          -1          -1          -1          -1          -1          -1
          -1          -1          -1          -1          -1          -1
          -1          -1          -1          -1          -1          -1
          -1
Number of residues                         I                0
Number of secondary structures             I                0
Number of contracted shells                I               56
Number of primitive shells                 I              139
Pure/Cartesian d shells                    I                1
Pure/Cartesian f shells                    I                0
Highest angular momentum                   I                1
Largest degree of contraction              I                6
Shell types                                I   N=          56
           0          -1          -1          -1           0           0
           0           0           0           0           0          -1
          -1          -1           0          -1          -1          -1
           0          -1          -1          -1           0           0
           0          -1          -1          -1           0           0
           0           0           0          -1          -1          -1
           0          -1          -1          -1           0          -1
          -1          -1           0           0           0          -1
          -1          -1           0           0           0           0
           0           0
Number of primitives per shell             I   N=          56
           6           3           1           1           3           1
           3           1           3           1           6           3
           1           1           6           3           1           1
           6           3           1           1           3           1
           6           3           1           1           3           1
           3           1           6           3           1           1
           6           3           1           1           6           3
           1           1           3           1           6           3
           1           1           3           1           3           1
           3           1
Shell to atom map                          I   N=          56
           1           1           1           1           2           2
           3           3           4           4           5           5
           5           5           6           6           6           6
           7           7           7           7           8           8
           9           9           9           9          10          10
          11          11          12          12          12          12
          13          13          13          13          14          14
          14          14          15          15          16          16
          16          16          17          17          18          18
          19          19
Primitive exponents                        R   N=         139
  3.04752488E+03  4.57369518E+02  1.03948685E+02  2.92101553E+01  9.28666296E+00
  3.16392696E+00  7.86827235E+00  1.88128854E+00  5.44249258E-01  1.68714478E-01
  4.38000000E-02  1.87311370E+01  2.82539436E+00  6.40121692E-01  1.61277759E-01
  1.87311370E+01  2.82539436E+00  6.40121692E-01  1.61277759E-01  1.87311370E+01
  2.82539436E+00  6.40121692E-01  1.61277759E-01  3.04752488E+03  4.57369518E+02
  1.03948685E+02  2.92101553E+01  9.28666296E+00  3.16392696E+00  7.86827235E+00
  1.88128854E+00  5.44249258E-01  1.68714478E-01  4.38000000E-02  5.48467166E+03
  8.25234946E+02  1.88046958E+02  5.29645000E+01  1.68975704E+01  5.79963534E+00
  1.55396162E+01  3.59993359E+00  1.01376175E+00  2.70005823E-01  8.45000000E-02
  4.17351146E+03  6.27457911E+02  1.42902093E+02  4.02343293E+01  1.28202129E+01
  4.39043701E+00  1.16263619E+01  2.71627981E+00  7.72218397E-01  2.12031498E-01
  6.39000000E-02  1.87311370E+01  2.82539436E+00  6.40121692E-01  1.61277759E-01
  3.04752488E+03  4.57369518E+02  1.03948685E+02  2.92101553E+01  9.28666296E+00
  3.16392696E+00  7.86827235E+00  1.88128854E+00  5.44249258E-01  1.68714478E-01
  4.38000000E-02  1.87311370E+01  2.82539436E+00  6.40121692E-01  1.61277759E-01
  1.87311370E+01  2.82539436E+00  6.40121692E-01  1.61277759E-01  3.04752488E+03
  4.57369518E+02  1.03948685E+02  2.92101553E+01  9.28666296E+00  3.16392696E+00
  7.86827235E+00  1.88128854E+00  5.44249258E-01  1.68714478E-01  4.38000000E-02
  5.48467166E+03  8.25234946E+02  1.88046958E+02  5.29645000E+01  1.68975704E+01
  5.79963534E+00  1.55396162E+01  3.59993359E+00  1.01376175E+00  2.70005823E-01
  8.45000000E-02  4.17351146E+03  6.27457911E+02  1.42902093E+02  4.02343293E+01
  1.28202129E+01  4.39043701E+00  1.16263619E+01  2.71627981E+00  7.72218397E-01
  2.12031498E-01  6.39000000E-02  1.87311370E+01  2.82539436E+00  6.40121692E-01
  1.61277759E-01  3.04752488E+03  4.57369518E+02  1.03948685E+02  2.92101553E+01
  9.28666296E+00  3.16392696E+00  7.86827235E+00  1.88128854E+00  5.44249258E-01
  1.68714478E-01  4.38000000E-02  1.87311370E+01  2.82539436E+00  6.40121692E-01
  1.61277759E-01  1.87311370E+01  2.82539436E+00  6.40121692E-01  1.61277759E-01
  1.87311370E+01  2.82539436E+00  6.40121692E-01  1.61277759E-01
Contraction coefficients                   R   N=         139
  1.83473713E-03  1.40373228E-02  6.88426223E-02  2.32184443E-01  4.67941348E-01
  3.62311985E-01 -1.19332420E-01 -1.60854152E-01  1.14345644E+00  1.00000000E+00
  1.00000000E+00  3.34946043E-02  2.34726953E-01  8.13757326E-01  1.00000000E+00
  3.34946043E-02  2.34726953E-01  8.13757326E-01  1.00000000E+00  3.34946043E-02
  2.34726953E-01  8.13757326E-01  1.00000000E+00  1.83473713E-03  1.40373228E-02
  6.88426223E-02  2.32184443E-01  4.67941348E-01  3.62311985E-01 -1.19332420E-01
 -1.60854152E-01  1.14345644E+00  1.00000000E+00  1.00000000E+00  1.83107443E-03
  1.39501722E-02  6.84450781E-02  2.32714336E-01  4.70192898E-01  3.58520853E-01
 -1.10777550E-01 -1.48026263E-01  1.13076702E+00  1.00000000E+00  1.00000000E+00
  1.83477216E-03  1.39946270E-02  6.85865518E-02  2.32240873E-01  4.69069948E-01
  3.60455199E-01 -1.14961182E-01 -1.69117479E-01  1.14585195E+00  1.00000000E+00
  1.00000000E+00  3.34946043E-02  2.34726953E-01  8.13757326E-01  1.00000000E+00
  1.83473713E-03  1.40373228E-02  6.88426223E-02  2.32184443E-01  4.67941348E-01
  3.62311985E-01 -1.19332420E-01 -1.60854152E-01  1.14345644E+00  1.00000000E+00
  1.00000000E+00  3.34946043E-02  2.34726953E-01  8.13757326E-01  1.00000000E+00
  3.34946043E-02  2.34726953E-01  8.13757326E-01  1.00000000E+00  1.83473713E-03
  1.40373228E-02  6.88426223E-02  2.32184443E-01  4.67941348E-01  3.62311985E-01
 -1.19332420E-01 -1.60854152E-01  1.14345644E+00  1.00000000E+00  1.00000000E+00
  1.83107443E-03  1.39501722E-02  6.84450781E-02  2.32714336E-01  4.70192898E-01
  3.58520853E-01 -1.10777550E-01 -1.48026263E-01  1.13076702E+00  1.00000000E+00
  1.00000000E+00  1.83477216E-03  1.39946270E-02  6.85865518E-02  2.32240873E-01
  4.69069948E-01  3.60455199E-01 -1.14961182E-01 -1.69117479E-01  1.14585195E+00
  1.00000000E+00  1.00000000E+00  3.34946043E-02  2.34726953E-01  8.13757326E-01
  1.00000000E+00  1.83473713E-03  1.40373228E-02  6.88426223E-02  2.32184443E-01
  4.67941348E-01  3.62311985E-01 -1.19332420E-01 -1.60854152E-01  1.14345644E+00
  1.00000000E+00  1.00000000E+00  3.34946043E-02  2.34726953E-01  8.13757326E-01
  1.00000000E+00  3.34946043E-02  2.34726953E-01  8.13757326E-01  1.00000000E+00
  3.34946043E-02  2.34726953E-01  8.13757326E-01  1.00000000E+00
P(S=P) Contraction coefficients            R   N=         139
  0.00000000E+00  0.00000000E+00  0.00000000E+00  0.00000000E+00  0.00000000E+00
  0.00000000E+00  6.89990666E-02  3.16423961E-01  7.44308291E-01  1.00000000E+00
  1.00000000E+00  0.00000000E+00  0.00000000E+00  0.00000000E+00  0.00000000E+00
  0.00000000E+00  0.00000000E+00  0.00000000E+00  0.00000000E+00  0.00000000E+00
  0.00000000E+00  0.00000000E+00  0.00000000E+00  0.00000000E+00  0.00000000E+00
  0.00000000E+00  0.00000000E+00  0.00000000E+00  0.00000000E+00  6.89990666E-02
  3.16423961E-01  7.44308291E-01  1.00000000E+00  1.00000000E+00  0.00000000E+00
  0.00000000E+00  0.00000000E+00  0.00000000E+00  0.00000000E+00  0.00000000E+00
  7.08742682E-02  3.39752839E-01  7.27158577E-01  1.00000000E+00  1.00000000E+00
  0.00000000E+00  0.00000000E+00  0.00000000E+00  0.00000000E+00  0.00000000E+00
  0.00000000E+00  6.75797439E-02  3.23907296E-01  7.40895140E-01  1.00000000E+00
  1.00000000E+00  0.00000000E+00  0.00000000E+00  0.00000000E+00  0.00000000E+00
  0.00000000E+00  0.00000000E+00  0.00000000E+00  0.00000000E+00  0.00000000E+00
  0.00000000E+00  6.89990666E-02  3.16423961E-01  7.44308291E-01  1.00000000E+00
  1.00000000E+00  0.00000000E+00  0.00000000E+00  0.00000000E+00  0.00000000E+00
  0.00000000E+00  0.00000000E+00  0.00000000E+00  0.00000000E+00  0.00000000E+00
  0.00000000E+00  0.00000000E+00  0.00000000E+00  0.00000000E+00  0.00000000E+00
  6.89990666E-02  3.16423961E-01  7.44308291E-01  1.00000000E+00  1.00000000E+00
  0.00000000E+00  0.00000000E+00  0.00000000E+00  0.00000000E+00  0.00000000E+00
  0.00000000E+00  7.08742682E-02  3.39752839E-01  7.27158577E-01  1.00000000E+00
  1.00000000E+00  0.00000000E+00  0.00000000E+00  0.00000000E+00  0.00000000E+00
  0.00000000E+00  0.00000000E+00  6.75797439E-02  3.23907296E-01  7.40895140E-01
  1.00000000E+00  1.00000000E+00  0.00000000E+00  0.00000000E+00  0.00000000E+00
  0.00000000E+00  0.00000000E+00  0.00000000E+00  0.00000000E+00  0.00000000E+00
  0.00000000E+00  0.00000000E+00  6.89990666E-02  3.16423961E-01  7.44308291E-01
  1.00000000E+00  1.00000000E+00  0.00000000E+00  0.00000000E+00  0.00000000E+00
  0.00000000E+00  0.00000000E+00  0.00000000E+00  0.00000000E+00  0.00000000E+00
  0.00000000E+00  0.00000000E+00  0.00000000E+00  0.00000000E+00
Coordinates of each shell                  R   N=         168
  6.45446775E+00  1.73410595E+00  9.99173351E-05  6.45446775E+00  1.73410595E+00
  9.99173351E-05  6.45446775E+00  1.73410595E+00  9.99173351E-05  6.45446775E+00
  1.73410595E+00  9.99173351E-05  5.67943313E+00  3.65407133E+00 -2.11016501E-04
  5.67943313E+00  3.65407133E+00 -2.11016501E-04  7.65001646E+00  1.47917128E+00
  1.67385535E+00  7.65001646E+00  1.47917128E+00  1.67385535E+00  7.65055038E+00
  1.47882269E+00 -1.67322353E+00  7.65055038E+00  1.47882269E+00 -1.67322353E+00
  4.41970482E+00 -2.92554253E-01 -2.01304403E-05  4.41970482E+00 -2.92554253E-01
 -2.01304403E-05  4.41970482E+00 -2.92554253E-01 -2.01304403E-05  4.41970482E+00
 -2.92554253E-01 -2.01304403E-05  4.94817233E+00 -2.59127496E+00 -2.01127058E-05
  4.94817233E+00 -2.59127496E+00 -2.01127058E-05  4.94817233E+00 -2.59127496E+00
 -2.01127058E-05  4.94817233E+00 -2.59127496E+00 -2.01127058E-05  1.98441702E+00
  5.19015257E-01 -8.71104939E-05  1.98441702E+00  5.19015257E-01 -8.71104939E-05
  1.98441702E+00  5.19015257E-01 -8.71104939E-05  1.98441702E+00  5.19015257E-01
 -8.71104939E-05  1.50047324E+00  2.37023985E+00 -1.29267119E-05  1.50047324E+00
  2.37023985E+00 -1.29267119E-05 -9.51656352E-02 -1.25931260E+00 -4.97923281E-05
 -9.51656352E-02 -1.25931260E+00 -4.97923281E-05 -9.51656352E-02 -1.25931260E+00
 -4.97923281E-05 -9.51656352E-02 -1.25931260E+00 -4.97923281E-05  7.82376698E-03
 -2.49420724E+00  1.67140082E+00  7.82376698E-03 -2.49420724E+00  1.67140082E+00
  7.71649933E-03 -2.49422892E+00 -1.67149436E+00  7.71649933E-03 -2.49422892E+00
 -1.67149436E+00 -2.57428606E+00  2.29407884E-01 -7.84097679E-06 -2.57428606E+00
  2.29407884E-01 -7.84097679E-06 -2.57428606E+00  2.29407884E-01 -7.84097679E-06
 -2.57428606E+00  2.29407884E-01 -7.84097679E-06 -2.59743330E+00  2.58443298E+00
 -8.61452653E-05 -2.59743330E+00  2.58443298E+00 -8.61452653E-05 -2.59743330E+00
  2.58443298E+00 -8.61452653E-05 -2.59743330E+00  2.58443298E+00 -8.61452653E-05
 -4.71963805E+00 -1.16746222E+00  6.07765402E-05 -4.71963805E+00 -1.16746222E+00
  6.07765402E-05 -4.71963805E+00 -1.16746222E+00  6.07765402E-05 -4.71963805E+00
 -1.16746222E+00  6.07765402E-05 -4.60801628E+00 -3.07092040E+00  1.52597053E-04
 -4.60801628E+00 -3.07092040E+00  1.52597053E-04 -7.20780999E+00  3.13976950E-02
  5.70506766E-05 -7.20780999E+00  3.13976950E-02  5.70506766E-05 -7.20780999E+00
  3.13976950E-02  5.70506766E-05 -7.20780999E+00  3.13976950E-02  5.70506766E-05
 -8.65834795E+00 -1.44067700E+00 -9.31819155E-04 -8.65834795E+00 -1.44067700E+00