Gaussian input prepared by ASE                                          
FOpt      RBMK                                                        6-31+G              
Number of atoms                            I               19
Info1-9                                    I   N=           9
          29          29           0           0           0         110
           2          18        -402
Full Title                                 C   N=           3
Gaussian input prepared by ASE      
Route                                      C   N=           3
#P bmk/6-31+g opt(modredun,calcfc)  
Charge                                     I                0
Multiplicity                               I                1
Number of electrons                        I               70
Number of alpha electrons                  I               35
Number of beta electrons                   I               35
Number of basis functions                  I              137
Number of independent functions            I              137
Number of point charges in /Mol/           I                0
Number of translation vectors              I                0
Atomic numbers                             I   N=          19
           6           1           1           1           6           8
           7           1           6           1           1           6
           8           7           1           6           1           1
           1
Nuclear charges                            R   N=          19
  6.00000000E+00  1.00000000E+00  1.00000000E+00  1.00000000E+00  6.00000000E+00
  8.00000000E+00  7.00000000E+00  1.00000000E+00  6.00000000E+00  1.00000000E+00
  1.00000000E+00  6.00000000E+00  8.00000000E+00  7.00000000E+00  1.00000000E+00
  6.00000000E+00  1.00000000E+00  1.00000000E+00  1.00000000E+00
Current cartesian coordinates              R   N=          57
 -5.87594955E+00  6.72610531E-01 -1.37092885E+00 -6.29248030E+00 -9.41710538E-01
 -2.59829996E+00 -7.44896258E+00  9.47261074E-01 -4.95282318E-02 -5.71729041E+00
  2.38667989E+00 -2.52515014E+00 -3.45836557E+00  3.43467619E-01  1.35066289E-01
 -2.70599744E+00  1.99974489E+00  1.64471933E+00 -2.13547822E+00 -1.83106762E+00
 -2.31620779E-01 -2.71601003E+00 -3.08151602E+00 -1.54750149E+00  1.53726847E-01
 -2.41955074E+00  1.20441332E+00  4.72019380E-01 -4.45887266E+00  1.14838944E+00
 -1.37864904E-01 -1.81239494E+00  3.16632921E+00  2.54312125E+00 -1.15541753E+00
  1.26637098E-01  4.26525594E+00 -2.44182480E+00 -8.37926194E-01  2.62664739E+00
  1.39364247E+00  3.26671210E-01  1.12541737E+00  2.29873510E+00  1.10785690E+00
  4.77363211E+00  2.83402414E+00 -6.29843773E-01  4.59815253E+00  4.79347470E+00
  5.00488664E-03  6.54422457E+00  2.02933501E+00  8.50573240E-02  4.84355170E+00
  2.78681956E+00 -2.70392050E+00
Number of symbols in /Mol/                 I                0
Redundant internal dimensions              I   N=           4
          80          18          30          32
Redundant internal coordinate indices      I   N=         320
           1           2           0           0           1           3
           0           0           1           4           0           0
           1           5           0           0           5           6
           0           0           5           7           0           0
           7           8           0           0           7           9
           0           0           9          10           0           0
           9          11           0           0           9          12
           0           0          12          13           0           0
          12          14           0           0          14          15
           0           0          14          16           0           0
          16          17           0           0          16          18
           0           0          16          19           0           0
           2           1           3           0           2           1
           4           0           2           1           5           0
           3           1           4           0           3           1
           5           0           4           1           5           0
           1           5           6           0           1           5
           7           0           6           5           7           0
           5           7           8           0           5           7
           9           0           8           7           9           0
           7           9          10           0           7           9
          11           0           7           9          12           0
          10           9          11           0          10           9
          12           0          11           9          12           0
           9          12          13           0           9          12
          14           0          13          12          14           0
          12          14          15           0          12          14
          16           0          15          14          16           0
          14          16          17           0          14          16
          18           0          14          16          19           0
          17          16          18           0          17          16
          19           0          18          16          19           0
           2           1           5           6           2           1
           5           7           3           1           5           6
           3           1           5           7           4           1
           5           6           4           1           5           7
           1           5           7           8           1           5
           7           9           6           5           7           8
           6           5           7           9           5           7
           9          10           5           7           9          11
           5           7           9          12           8           7
           9          10           8           7           9          11
           8           7           9          12           7           9
          12          13           7           9          12          14
          10           9          12          13          10           9
          12          14          11           9          12          13
          11           9          12          14           9          12
          14          15           9          12          14          16
          13          12          14          15          13          12
          14          16          12          14          16          17
          12          14          16          18          12          14
          16          19          15          14          16          17
          15          14          16          18          15          14
          16          19
Redundant internal coordinates             R   N=          80
  2.07025849E+00  2.07265591E+00  2.07254271E+00  2.86724061E+00  2.36397219E+00
  2.57159364E+00  1.90582801E+00  2.76567644E+00  2.06477183E+00  2.07431383E+00
  2.91012714E+00  2.35605049E+00  2.55826056E+00  1.91914964E+00  2.75665806E+00
  2.06718949E+00  2.07210179E+00  2.07579173E+00  1.90562067E+00  1.90723721E+00
  1.97308574E+00  1.87922273E+00  1.89680475E+00  1.89959321E+00  2.12157129E+00
  2.04420573E+00  2.11740345E+00  2.09043552E+00  2.13138760E+00  2.06125103E+00
  1.90039773E+00  1.88858124E+00  1.97673213E+00  1.91391649E+00  1.86755084E+00
  1.91617978E+00  2.11132812E+00  2.01603982E+00  2.15577841E+00  2.06712807E+00
  2.11639327E+00  2.09907994E+00  1.89927421E+00  1.92077834E+00  1.94018833E+00
  1.91206691E+00  1.90844351E+00  1.88295555E+00 -3.13340770E+00  1.14842804E-02
 -1.01480532E+00  2.13008666E+00  1.02714864E+00 -2.11114469E+00  7.13422269E-02
 -3.08658307E+00 -3.06695949E+00  5.83005230E-02  2.76861647E+00  6.89363716E-01
 -1.43921522E+00 -3.89047359E-01 -2.46830011E+00  1.68630626E+00 -1.96893954E+00
  1.18181470E+00  1.25255300E-01 -3.00717577E+00  2.20116460E+00 -9.31266470E-01
 -3.02152763E-02 -3.13517456E+00  3.12079955E+00  1.58402658E-02 -2.97796068E+00
 -8.82628061E-01  1.20243777E+00  2.00929961E-01  2.29626258E+00 -1.90185690E+00
ZRed-IntVec                                I   N=          80
           0           0           0           0           0           0
           0           0           0           0           0           0
           0           0           0           0           0           0
           0           0           0           0           0           0
           0           0           0           0           0           0
           0           0           0           0           0           0
           0           0           0           0           0           0
           0           0           0           0           0           0
           0           0           0           0           0           0
           0           0           0           0           0           0
           0           0           0           0           0           0
           0           0           0           0           0           0
           0           0           0           0           0           0
           0           0
ZRed-FPVec                                 R   N=          80
  0.00000000E+00  0.00000000E+00  0.00000000E+00  0.00000000E+00  0.00000000E+00
  0.00000000E+00  0.00000000E+00  0.00000000E+00  0.00000000E+00  0.00000000E+00
  0.00000000E+00  0.00000000E+00  0.00000000E+00  0.00000000E+00  0.00000000E+00
  0.00000000E+00  0.00000000E+00  0.00000000E+00  0.00000000E+00  0.00000000E+00
  0.00000000E+00  0.00000000E+00  0.00000000E+00  0.00000000E+00  0.00000000E+00
  0.00000000E+00  0.00000000E+00  0.00000000E+00  0.00000000E+00  0.00000000E+00
  0.00000000E+00  0.00000000E+00  0.00000000E+00  0.00000000E+00  0.00000000E+00
  0.00000000E+00  0.00000000E+00  0.00000000E+00  0.00000000E+00  0.00000000E+00
  0.00000000E+00  0.00000000E+00  0.00000000E+00  0.00000000E+00  0.00000000E+00
  0.00000000E+00  0.00000000E+00  0.00000000E+00  0.00000000E+00  0.00000000E+00
  0.00000000E+00  0.00000000E+00  0.00000000E+00  0.00000000E+00  0.00000000E+00
  0.00000000E+00  0.00000000E+00  0.00000000E+00  0.00000000E+00  0.00000000E+00
  0.00000000E+00  0.00000000E+00  0.00000000E+00  0.00000000E+00  0.00000000E+00
  0.00000000E+00  0.00000000E+00  0.00000000E+00  0.00000000E+00  0.00000000E+00
  0.00000000E+00  0.00000000E+00  0.00000000E+00  0.00000000E+00  0.00000000E+00
  0.00000000E+00  0.00000000E+00  0.00000000E+00  0.00000000E+00  0.00000000E+00
ZRed-Constraint1                           R   N=          80
  2.07031292E+00  2.07360226E+00  2.07154154E+00  2.86747183E+00  2.36410177E+00
  2.57148888E+00  1.90548593E+00  2.76601364E+00  2.06330836E+00  2.07514474E+00
  2.91056966E+00  2.35513180E+00  2.55773018E+00  1.91967343E+00  2.75759286E+00
  2.06727488E+00  2.07283662E+00  2.07600586E+00  1.90504647E+00  1.90722704E+00
  1.97366589E+00  1.87922267E+00  1.89618320E+00  1.90019450E+00  2.12143325E+00
  2.04365400E+00  2.11809117E+00  2.09073413E+00  2.13129789E+00  2.06102950E+00
  1.90084120E+00  1.88793599E+00  1.97709818E+00  1.91451091E+00  1.86759319E+00
  1.91542468E+00  2.11075456E+00  2.01592132E+00  2.15648025E+00  2.06767187E+00
  2.11607287E+00  2.09888819E+00  1.89940475E+00  1.92110110E+00  1.93997471E+00
  1.91193063E+00  1.90898499E+00  1.88230930E+00 -3.13276435E+00  1.27643164E-02
 -1.01494855E+00  2.13058012E+00  1.02699268E+00 -2.11066395E+00  7.10998890E-02
 -3.08773034E+00 -3.06656479E+00  5.77902933E-02  2.76901166E+00  6.89165533E-01
 -1.43823484E+00 -3.89537705E-01 -2.46938383E+00  1.68640110E+00 -1.96903125E+00
  1.18048702E+00  1.25963847E-01 -3.00770319E+00  2.20219447E+00 -9.31472567E-01
 -2.91920057E-02 -3.13515377E+00  3.12055829E+00  1.45965283E-02 -2.97760215E+00
 -8.82160259E-01  1.20217300E+00  2.00253053E-01  2.29569494E+00 -1.90315711E+00
ZRed-Constraint2                           R   N=          80
  0.00000000E+00  0.00000000E+00  0.00000000E+00  0.00000000E+00  0.00000000E+00
  0.00000000E+00  0.00000000E+00  0.00000000E+00  0.00000000E+00  0.00000000E+00
  0.00000000E+00  0.00000000E+00  0.00000000E+00  0.00000000E+00  0.00000000E+00
  0.00000000E+00  0.00000000E+00  0.00000000E+00  0.00000000E+00  0.00000000E+00
  0.00000000E+00  0.00000000E+00  0.00000000E+00  0.00000000E+00  0.00000000E+00
  0.00000000E+00  0.00000000E+00  0.00000000E+00  0.00000000E+00  0.00000000E+00
  0.00000000E+00  0.00000000E+00  0.00000000E+00  0.00000000E+00  0.00000000E+00
  0.00000000E+00  0.00000000E+00  0.00000000E+00  0.00000000E+00  0.00000000E+00
  0.00000000E+00  0.00000000E+00  0.00000000E+00  0.00000000E+00  0.00000000E+00
  0.00000000E+00  0.00000000E+00  0.00000000E+00  0.00000000E+00  0.00000000E+00
  0.00000000E+00  0.00000000E+00  0.00000000E+00  0.00000000E+00  0.00000000E+00
  0.00000000E+00  0.00000000E+00  0.00000000E+00  0.00000000E+00  0.00000000E+00
  0.00000000E+00  0.00000000E+00  0.00000000E+00  0.00000000E+00  0.00000000E+00
  0.00000000E+00  0.00000000E+00  0.00000000E+00  0.00000000E+00  0.00000000E+00
  0.00000000E+00  0.00000000E+00  0.00000000E+00  0.00000000E+00  0.00000000E+00
  0.00000000E+00  0.00000000E+00  0.00000000E+00  0.00000000E+00  0.00000000E+00
Force Field                                I                0
Atom Types                                 C   N=          19
                                                            
                                                            
                                                            
                                                
Int Atom Types                             I   N=          19
           0           0           0           0           0           0
           0           0           0           0           0           0
           0           0           0           0           0           0
           0
MM charges                                 R   N=          19
  0.00000000E+00  0.00000000E+00  0.00000000E+00  0.00000000E+00  0.00000000E+00
  0.00000000E+00  0.00000000E+00  0.00000000E+00  0.00000000E+00  0.00000000E+00
  0.00000000E+00  0.00000000E+00  0.00000000E+00  0.00000000E+00  0.00000000E+00
  0.00000000E+00  0.00000000E+00  0.00000000E+00  0.00000000E+00
Integer atomic weights                     I   N=          19
          12           1           1           1          12          16
          14           1          12           1           1          12
          16          14           1          12           1           1
           1
Real atomic weights                        R   N=          19
  1.20000000E+01  1.00782504E+00  1.00782504E+00  1.00782504E+00  1.20000000E+01
  1.59949146E+01  1.40030740E+01  1.00782504E+00  1.20000000E+01  1.00782504E+00
  1.00782504E+00  1.20000000E+01  1.59949146E+01  1.40030740E+01  1.00782504E+00
  1.20000000E+01  1.00782504E+00  1.00782504E+00  1.00782504E+00
Atom fragment info                         I   N=          19
           0           0           0           0           0           0
           0           0           0           0           0           0
           0           0           0           0           0           0
           0
Atom residue num                           I   N=          19
           0           0           0           0           0           0
           0           0           0           0           0           0
           0           0           0           0           0           0
           0
Nuclear spins                              I   N=          19
           0           1           1           1           0           0
           2           1           0           1           1           0
           0           2           1           0           1           1
           1
Nuclear ZEff                               R   N=          19
 -3.60000000E+00 -1.00000000E+00 -1.00000000E+00 -1.00000000E+00 -3.60000000E+00
 -5.60000000E+00 -4.55000000E+00 -1.00000000E+00 -3.60000000E+00 -1.00000000E+00
 -1.00000000E+00 -3.60000000E+00 -5.60000000E+00 -4.55000000E+00 -1.00000000E+00
 -3.60000000E+00 -1.00000000E+00 -1.00000000E+00 -1.00000000E+00
Nuclear ZNuc                               R   N=          19
  6.00000000E+00  1.00000000E+00  1.00000000E+00  1.00000000E+00  6.00000000E+00
  8.00000000E+00  7.00000000E+00  1.00000000E+00  6.00000000E+00  1.00000000E+00
  1.00000000E+00  6.00000000E+00  8.00000000E+00  7.00000000E+00  1.00000000E+00
  6.00000000E+00  1.00000000E+00  1.00000000E+00  1.00000000E+00
Nuclear QMom                               R   N=          19
  0.00000000E+00  0.00000000E+00  0.00000000E+00  0.00000000E+00  0.00000000E+00
  0.00000000E+00  2.04400000E+00  0.00000000E+00  0.00000000E+00  0.00000000E+00
  0.00000000E+00  0.00000000E+00  0.00000000E+00  2.04400000E+00  0.00000000E+00
  0.00000000E+00  0.00000000E+00  0.00000000E+00  0.00000000E+00
Nuclear GFac                               R   N=          19
  0.00000000E+00  2.79284600E+00  2.79284600E+00  2.79284600E+00  0.00000000E+00
  0.00000000E+00  4.03761000E-01  2.79284600E+00  0.00000000E+00  2.79284600E+00
  2.79284600E+00  0.00000000E+00  0.00000000E+00  4.03761000E-01  2.79284600E+00
  0.00000000E+00  2.79284600E+00  2.79284600E+00  2.79284600E+00
MicOpt                                     I   N=          19
          -1          -1          -1          -1          -1          -1
          -1          -1          -1          -1          -1          -1
          -1          -1          -1          -1          -1          -1
          -1
Number of residues                         I                0
Number of secondary structures             I                0
Number of contracted shells                I               56
Number of primitive shells                 I              139
Pure/Cartesian d shells                    I                1
Pure/Cartesian f shells                    I                0
Highest angular momentum                   I                1
Largest degree of contraction              I                6
Shell types                                I   N=          56
           0          -1          -1          -1           0           0
           0           0           0           0           0          -1
          -1          -1           0          -1          -1          -1
           0          -1          -1          -1           0           0
           0          -1          -1          -1           0           0
           0           0           0          -1          -1          -1
           0          -1          -1          -1           0          -1
          -1          -1           0           0           0          -1
          -1          -1           0           0           0           0
           0           0
Number of primitives per shell             I   N=          56
           6           3           1           1           3           1
           3           1           3           1           6           3
           1           1           6           3           1           1
           6           3           1           1           3           1
           6           3           1           1           3           1
           3           1           6           3           1           1
           6           3           1           1           6           3
           1           1           3           1           6           3
           1           1           3           1           3           1
           3           1
Shell to atom map                          I   N=          56
           1           1           1           1           2           2
           3           3           4           4           5           5
           5           5           6           6           6           6
           7           7           7           7           8           8
           9           9           9           9          10          10
          11          11          12          12          12          12
          13          13          13          13          14          14
          14          14          15          15          16          16
          16          16          17          17          18          18
          19          19
Primitive exponents                        R   N=         139
  3.04752488E+03  4.57369518E+02  1.03948685E+02  2.92101553E+01  9.28666296E+00
  3.16392696E+00  7.86827235E+00  1.88128854E+00  5.44249258E-01  1.68714478E-01
  4.38000000E-02  1.87311370E+01  2.82539436E+00  6.40121692E-01  1.61277759E-01
  1.87311370E+01  2.82539436E+00  6.40121692E-01  1.61277759E-01  1.87311370E+01
  2.82539436E+00  6.40121692E-01  1.61277759E-01  3.04752488E+03  4.57369518E+02
  1.03948685E+02  2.92101553E+01  9.28666296E+00  3.16392696E+00  7.86827235E+00
  1.88128854E+00  5.44249258E-01  1.68714478E-01  4.38000000E-02  5.48467166E+03
  8.25234946E+02  1.88046958E+02  5.29645000E+01  1.68975704E+01  5.79963534E+00
  1.55396162E+01  3.59993359E+00  1.01376175E+00  2.70005823E-01  8.45000000E-02
  4.17351146E+03  6.27457911E+02  1.42902093E+02  4.02343293E+01  1.28202129E+01
  4.39043701E+00  1.16263619E+01  2.71627981E+00  7.72218397E-01  2.12031498E-01
  6.39000000E-02  1.87311370E+01  2.82539436E+00  6.40121692E-01  1.61277759E-01
  3.04752488E+03  4.57369518E+02  1.03948685E+02  2.92101553E+01  9.28666296E+00
  3.16392696E+00  7.86827235E+00  1.88128854E+00  5.44249258E-01  1.68714478E-01
  4.38000000E-02  1.87311370E+01  2.82539436E+00  6.40121692E-01  1.61277759E-01
  1.87311370E+01  2.82539436E+00  6.40121692E-01  1.61277759E-01  3.04752488E+03
  4.57369518E+02  1.03948685E+02  2.92101553E+01  9.28666296E+00  3.16392696E+00
  7.86827235E+00  1.88128854E+00  5.44249258E-01  1.68714478E-01  4.38000000E-02
  5.48467166E+03  8.25234946E+02  1.88046958E+02  5.29645000E+01  1.68975704E+01
  5.79963534E+00  1.55396162E+01  3.59993359E+00  1.01376175E+00  2.70005823E-01
  8.45000000E-02  4.17351146E+03  6.27457911E+02  1.42902093E+02  4.02343293E+01
  1.28202129E+01  4.39043701E+00  1.16263619E+01  2.71627981E+00  7.72218397E-01
  2.12031498E-01  6.39000000E-02  1.87311370E+01  2.82539436E+00  6.40121692E-01
  1.61277759E-01  3.04752488E+03  4.57369518E+02  1.03948685E+02  2.92101553E+01
  9.28666296E+00  3.16392696E+00  7.86827235E+00  1.88128854E+00  5.44249258E-01
  1.68714478E-01  4.38000000E-02  1.87311370E+01  2.82539436E+00  6.40121692E-01
  1.61277759E-01  1.87311370E+01  2.82539436E+00  6.40121692E-01  1.61277759E-01
  1.87311370E+01  2.82539436E+00  6.40121692E-01  1.61277759E-01
Contraction coefficients                   R   N=         139
  1.83473713E-03  1.40373228E-02  6.88426223E-02  2.32184443E-01  4.67941348E-01
  3.62311985E-01 -1.19332420E-01 -1.60854152E-01  1.14345644E+00  1.00000000E+00
  1.00000000E+00  3.34946043E-02  2.34726953E-01  8.13757326E-01  1.00000000E+00
  3.34946043E-02  2.34726953E-01  8.13757326E-01  1.00000000E+00  3.34946043E-02
  2.34726953E-01  8.13757326E-01  1.00000000E+00  1.83473713E-03  1.40373228E-02
  6.88426223E-02  2.32184443E-01  4.67941348E-01  3.62311985E-01 -1.19332420E-01
 -1.60854152E-01  1.14345644E+00  1.00000000E+00  1.00000000E+00  1.83107443E-03
  1.39501722E-02  6.84450781E-02  2.32714336E-01  4.70192898E-01  3.58520853E-01
 -1.10777550E-01 -1.48026263E-01  1.13076702E+00  1.00000000E+00  1.00000000E+00
  1.83477216E-03  1.39946270E-02  6.85865518E-02  2.32240873E-01  4.69069948E-01
  3.60455199E-01 -1.14961182E-01 -1.69117479E-01  1.14585195E+00  1.00000000E+00
  1.00000000E+00  3.34946043E-02  2.34726953E-01  8.13757326E-01  1.00000000E+00
  1.83473713E-03  1.40373228E-02  6.88426223E-02  2.32184443E-01  4.67941348E-01
  3.62311985E-01 -1.19332420E-01 -1.60854152E-01  1.14345644E+00  1.00000000E+00
  1.00000000E+00  3.34946043E-02  2.34726953E-01  8.13757326E-01  1.00000000E+00
  3.34946043E-02  2.34726953E-01  8.13757326E-01  1.00000000E+00  1.83473713E-03
  1.40373228E-02  6.88426223E-02  2.32184443E-01  4.67941348E-01  3.62311985E-01
 -1.19332420E-01 -1.60854152E-01  1.14345644E+00  1.00000000E+00  1.00000000E+00
  1.83107443E-03  1.39501722E-02  6.84450781E-02  2.32714336E-01  4.70192898E-01
  3.58520853E-01 -1.10777550E-01 -1.48026263E-01  1.13076702E+00  1.00000000E+00
  1.00000000E+00  1.83477216E-03  1.39946270E-02  6.85865518E-02  2.32240873E-01
  4.69069948E-01  3.60455199E-01 -1.14961182E-01 -1.69117479E-01  1.14585195E+00
  1.00000000E+00  1.00000000E+00  3.34946043E-02  2.34726953E-01  8.13757326E-01
  1.00000000E+00  1.83473713E-03  1.40373228E-02  6.88426223E-02  2.32184443E-01
  4.67941348E-01  3.62311985E-01 -1.19332420E-01 -1.60854152E-01  1.14345644E+00
  1.00000000E+00  1.00000000E+00  3.34946043E-02  2.34726953E-01  8.13757326E-01
  1.00000000E+00  3.34946043E-02  2.34726953E-01  8.13757326E-01  1.00000000E+00
  3.34946043E-02  2.34726953E-01  8.13757326E-01  1.00000000E+00
P(S=P) Contraction coefficients            R   N=         139
  0.00000000E+00  0.00000000E+00  0.00000000E+00  0.00000000E+00  0.00000000E+00
  0.00000000E+00  6.89990666E-02  3.16423961E-01  7.44308291E-01  1.00000000E+00
  1.00000000E+00  0.00000000E+00  0.00000000E+00  0.00000000E+00  0.00000000E+00
  0.00000000E+00  0.00000000E+00  0.00000000E+00  0.00000000E+00  0.00000000E+00
  0.00000000E+00  0.00000000E+00  0.00000000E+00  0.00000000E+00  0.00000000E+00
  0.00000000E+00  0.00000000E+00  0.00000000E+00  0.00000000E+00  6.89990666E-02
  3.16423961E-01  7.44308291E-01  1.00000000E+00  1.00000000E+00  0.00000000E+00
  0.00000000E+00  0.00000000E+00  0.00000000E+00  0.00000000E+00  0.00000000E+00
  7.08742682E-02  3.39752839E-01  7.27158577E-01  1.00000000E+00  1.00000000E+00
  0.00000000E+00  0.00000000E+00  0.00000000E+00  0.00000000E+00  0.00000000E+00
  0.00000000E+00  6.75797439E-02  3.23907296E-01  7.40895140E-01  1.00000000E+00
  1.00000000E+00  0.00000000E+00  0.00000000E+00  0.00000000E+00  0.00000000E+00
  0.00000000E+00  0.00000000E+00  0.00000000E+00  0.00000000E+00  0.00000000E+00
  0.00000000E+00  6.89990666E-02  3.16423961E-01  7.44308291E-01  1.00000000E+00
  1.00000000E+00  0.00000000E+00  0.00000000E+00  0.00000000E+00  0.00000000E+00
  0.00000000E+00  0.00000000E+00  0.00000000E+00  0.00000000E+00  0.00000000E+00
  0.00000000E+00  0.00000000E+00  0.00000000E+00  0.00000000E+00  0.00000000E+00
  6.89990666E-02  3.16423961E-01  7.44308291E-01  1.00000000E+00  1.00000000E+00
  0.00000000E+00  0.00000000E+00  0.00000000E+00  0.00000000E+00  0.00000000E+00
  0.00000000E+00  7.08742682E-02  3.39752839E-01  7.27158577E-01  1.00000000E+00
  1.00000000E+00  0.00000000E+00  0.00000000E+00  0.00000000E+00  0.00000000E+00
  0.00000000E+00  0.00000000E+00  6.75797439E-02  3.23907296E-01  7.40895140E-01
  1.00000000E+00  1.00000000E+00  0.00000000E+00  0.00000000E+00  0.00000000E+00
  0.00000000E+00  0.00000000E+00  0.00000000E+00  0.00000000E+00  0.00000000E+00
  0.00000000E+00  0.00000000E+00  6.89990666E-02  3.16423961E-01  7.44308291E-01
  1.00000000E+00  1.00000000E+00  0.00000000E+00  0.00000000E+00  0.00000000E+00
  0.00000000E+00  0.00000000E+00  0.00000000E+00  0.00000000E+00  0.00000000E+00
  0.00000000E+00  0.00000000E+00  0.00000000E+00  0.00000000E+00
Coordinates of each shell                  R   N=         168
 -5.87594955E+00  6.72610531E-01 -1.37092885E+00 -5.87594955E+00  6.72610531E-01
 -1.37092885E+00 -5.87594955E+00  6.72610531E-01 -1.37092885E+00 -5.87594955E+00
  6.72610531E-01 -1.37092885E+00 -6.29248030E+00 -9.41710538E-01 -2.59829996E+00
 -6.29248030E+00 -9.41710538E-01 -2.59829996E+00 -7.44896258E+00  9.47261074E-01
 -4.95282318E-02 -7.44896258E+00  9.47261074E-01 -4.95282318E-02 -5.71729041E+00
  2.38667989E+00 -2.52515014E+00 -5.71729041E+00  2.38667989E+00 -2.52515014E+00
 -3.45836557E+00  3.43467619E-01  1.35066289E-01 -3.45836557E+00  3.43467619E-01
  1.35066289E-01 -3.45836557E+00  3.43467619E-01  1.35066289E-01 -3.45836557E+00
  3.43467619E-01  1.35066289E-01 -2.70599744E+00  1.99974489E+00  1.64471933E+00
 -2.70599744E+00  1.99974489E+00  1.64471933E+00 -2.70599744E+00  1.99974489E+00
  1.64471933E+00 -2.70599744E+00  1.99974489E+00  1.64471933E+00 -2.13547822E+00
 -1.83106762E+00 -2.31620779E-01 -2.13547822E+00 -1.83106762E+00 -2.31620779E-01
 -2.13547822E+00 -1.83106762E+00 -2.31620779E-01 -2.13547822E+00 -1.83106762E+00
 -2.31620779E-01 -2.71601003E+00 -3.08151602E+00 -1.54750149E+00 -2.71601003E+00
 -3.08151602E+00 -1.54750149E+00  1.53726847E-01 -2.41955074E+00  1.20441332E+00
  1.53726847E-01 -2.41955074E+00  1.20441332E+00  1.53726847E-01 -2.41955074E+00
  1.20441332E+00  1.53726847E-01 -2.41955074E+00  1.20441332E+00  4.72019380E-01
 -4.45887266E+00  1.14838944E+00  4.72019380E-01 -4.45887266E+00  1.14838944E+00
 -1.37864904E-01 -1.81239494E+00  3.16632921E+00 -1.37864904E-01 -1.81239494E+00
  3.16632921E+00  2.54312125E+00 -1.15541753E+00  1.26637098E-01  2.54312125E+00
 -1.15541753E+00  1.26637098E-01  2.54312125E+00 -1.15541753E+00  1.26637098E-01
  2.54312125E+00 -1.15541753E+00  1.26637098E-01  4.26525594E+00 -2.44182480E+00
 -8.37926194E-01  4.26525594E+00 -2.44182480E+00 -8.37926194E-01  4.26525594E+00
 -2.44182480E+00 -8.37926194E-01  4.26525594E+00 -2.44182480E+00 -8.37926194E-01
  2.62664739E+00  1.39364247E+00  3.26671210E-01  2.62664739E+00  1.39364247E+00
  3.26671210E-01  2.62664739E+00  1.39364247E+00  3.26671210E-01  2.62664739E+00
  1.39364247E+00  3.26671210E-01  1.12541737E+00  2.29873510E+00  1.10785690E+00
  1.12541737E+00  2.29873510E+00  1.10785690E+00  4.77363211E+00  2.83402414E+00
 -6.29843773E-01  4.77363211E+00  2.83402414E+00 -6.29843773E-01  4.77363211E+00
  2.83402414E+00 -6.29843773E-01  4.77363211E+00  2.83402414E+00 -6.29843773E-01
  4.59815253E+00  4.79347470E+00  5.00488664E-03  4.59815253E+00  4.79347470E+00