Gaussian input prepared by ASE                                          
Freq      RBMK                                                        6-31+G              
Number of atoms                            I               19
Info1-9                                    I   N=           9
          30          29        1002           0           0         100
           6          18        -402
Full Title                                 C   N=           3
Gaussian input prepared by ASE      
Route                                      C   N=           6
#P Geom=AllCheck Guess=TCheck SCRF=Check GenChk RBMK/6-31+G 
Freq        
Charge                                     I                0
Multiplicity                               I                1
Number of electrons                        I               70
Number of alpha electrons                  I               35
Number of beta electrons                   I               35
Number of basis functions                  I              137
Number of independent functions            I              137
Number of point charges in /Mol/           I                0
Number of translation vectors              I                0
Atomic numbers                             I   N=          19
           6           1           1           1           6           8
           7           1           6           1           1           6
           8           7           1           6           1           1
           1
Nuclear charges                            R   N=          19
  6.00000000E+00  1.00000000E+00  1.00000000E+00  1.00000000E+00  6.00000000E+00
  8.00000000E+00  7.00000000E+00  1.00000000E+00  6.00000000E+00  1.00000000E+00
  1.00000000E+00  6.00000000E+00  8.00000000E+00  7.00000000E+00  1.00000000E+00
  6.00000000E+00  1.00000000E+00  1.00000000E+00  1.00000000E+00
Current cartesian coordinates              R   N=          57
  5.87560508E+00  6.72902778E-01  1.37109441E+00  6.29276093E+00 -9.41693609E-01
  2.59787487E+00  7.44863831E+00  9.48933245E-01  5.00252819E-02  5.71596121E+00
  2.38639215E+00  2.52605651E+00  3.45828751E+00  3.43280520E-01 -1.35213549E-01
  2.70596458E+00  1.99930716E+00 -1.64517504E+00  2.13544199E+00 -1.83122138E+00
  2.31709341E-01  2.71597289E+00 -3.08151693E+00  1.54773062E+00 -1.53809145E-01
 -2.41982367E+00 -1.20420142E+00 -4.72219401E-01 -4.45911626E+00 -1.14784057E+00
  1.37781325E-01 -1.81297568E+00 -3.16621142E+00 -2.54310225E+00 -1.15537722E+00
 -1.26558117E-01 -4.26545380E+00 -2.44155527E+00  8.37932848E-01 -2.62629910E+00
  1.39368342E+00 -3.26613002E-01 -1.12496921E+00  2.29861893E+00 -1.10779199E+00
 -4.77321327E+00  2.83427439E+00  6.29723322E-01 -4.59711146E+00  4.79385542E+00
 -4.54252911E-03 -6.54382681E+00  2.03022180E+00 -8.58680438E-02 -4.84368187E+00
  2.78649076E+00  2.70376259E+00
Number of symbols in /Mol/                 I                0
Redundant internal dimensions              I   N=           4
          80          18          30          32
Redundant internal coordinate indices      I   N=         320
           1           2           0           0           1           3
           0           0           1           4           0           0
           1           5           0           0           5           6
           0           0           5           7           0           0
           7           8           0           0           7           9
           0           0           9          10           0           0
           9          11           0           0           9          12
           0           0          12          13           0           0
          12          14           0           0          14          15
           0           0          14          16           0           0
          16          17           0           0          16          18
           0           0          16          19           0           0
           2           1           3           0           2           1
           4           0           2           1           5           0
           3           1           4           0           3           1
           5           0           4           1           5           0
           1           5           6           0           1           5
           7           0           6           5           7           0
           5           7           8           0           5           7
           9           0           8           7           9           0
           7           9          10           0           7           9
          11           0           7           9          12           0
          10           9          11           0          10           9
          12           0          11           9          12           0
           9          12          13           0           9          12
          14           0          13          12          14           0
          12          14          15           0          12          14
          16           0          15          14          16           0
          14          16          17           0          14          16
          18           0          14          16          19           0
          17          16          18           0          17          16
          19           0          18          16          19           0
           2           1           5           6           2           1
           5           7           3           1           5           6
           3           1           5           7           4           1
           5           6           4           1           5           7
           1           5           7           8           1           5
           7           9           6           5           7           8
           6           5           7           9           5           7
           9          10           5           7           9          11
           5           7           9          12           8           7
           9          10           8           7           9          11
           8           7           9          12           7           9
          12          13           7           9          12          14
          10           9          12          13          10           9
          12          14          11           9          12          13
          11           9          12          14           9          12
          14          15           9          12          14          16
          13          12          14          15          13          12
          14          16          12          14          16          17
          12          14          16          18          12          14
          16          19          15          14          16          17
          15          14          16          18          15          14
          16          19
Redundant internal coordinates             R   N=          80
  2.07024897E+00  2.07264324E+00  2.07255143E+00  2.86723539E+00  2.36397921E+00
  2.57157757E+00  1.90582452E+00  2.76567589E+00  2.06477018E+00  2.07431260E+00
  2.91013083E+00  2.35605426E+00  2.55825210E+00  1.91915094E+00  2.75665050E+00
  2.06718718E+00  2.07211097E+00  2.07578611E+00  1.90565519E+00  1.90719249E+00
  1.97309392E+00  1.87920943E+00  1.89686113E+00  1.89955136E+00  2.12155601E+00
  2.04422631E+00  2.11739779E+00  2.09044328E+00  2.13137692E+00  2.06125323E+00
  1.90040417E+00  1.88857993E+00  1.97671368E+00  1.91393057E+00  1.86755017E+00
  1.91618079E+00  2.11133055E+00  2.01604202E+00  2.15577381E+00  2.06715289E+00
  2.11636998E+00  2.09908103E+00  1.89926540E+00  1.92080316E+00  1.94017607E+00
  1.91205134E+00  1.90845683E+00  1.88295397E+00 -3.13280586E+00  1.22070754E-02
 -1.01411457E+00  2.13089836E+00  1.02783166E+00 -2.11034071E+00  7.11495163E-02
 -3.08682897E+00 -3.06703154E+00  5.81752831E-02  2.76872121E+00  6.89448654E-01
 -1.43911852E+00 -3.88994907E-01 -2.46826746E+00  1.68635067E+00 -1.96911939E+00
  1.18163210E+00  1.25071926E-01 -3.00736189E+00  2.20099824E+00 -9.31435582E-01
 -3.01687620E-02 -3.13521004E+00  3.12084319E+00  1.58019165E-02 -2.97831045E+00
 -8.82987334E-01  1.20208485E+00  2.00496227E-01  2.29581934E+00 -1.90229378E+00
ZRed-IntVec                                I   N=          80
           0           0           0           0           0           0
           0           0           0           0           0           0
           0           0           0           0           0           0
           0           0           0           0           0           0
           0           0           0           0           0           0
           0           0           0           0           0           0
           0           0           0           0           0           0
           0           0           0           0           0           0
           0           0           0           0           0           0
           0           0           0           0           0           0
           0           0           0           0           0           0
           0           0           0           0           0           0
           0           0           0           0           0           0
           0           0
ZRed-FPVec                                 R   N=          80
  0.00000000E+00  0.00000000E+00  0.00000000E+00  0.00000000E+00  0.00000000E+00
  0.00000000E+00  0.00000000E+00  0.00000000E+00  0.00000000E+00  0.00000000E+00
  0.00000000E+00  0.00000000E+00  0.00000000E+00  0.00000000E+00  0.00000000E+00
  0.00000000E+00  0.00000000E+00  0.00000000E+00  0.00000000E+00  0.00000000E+00
  0.00000000E+00  0.00000000E+00  0.00000000E+00  0.00000000E+00  0.00000000E+00
  0.00000000E+00  0.00000000E+00  0.00000000E+00  0.00000000E+00  0.00000000E+00
  0.00000000E+00  0.00000000E+00  0.00000000E+00  0.00000000E+00  0.00000000E+00
  0.00000000E+00  0.00000000E+00  0.00000000E+00  0.00000000E+00  0.00000000E+00
  0.00000000E+00  0.00000000E+00  0.00000000E+00  0.00000000E+00  0.00000000E+00
  0.00000000E+00  0.00000000E+00  0.00000000E+00  0.00000000E+00  0.00000000E+00
  0.00000000E+00  0.00000000E+00  0.00000000E+00  0.00000000E+00  0.00000000E+00
  0.00000000E+00  0.00000000E+00  0.00000000E+00  0.00000000E+00  0.00000000E+00
  0.00000000E+00  0.00000000E+00  0.00000000E+00  0.00000000E+00  0.00000000E+00
  0.00000000E+00  0.00000000E+00  0.00000000E+00  0.00000000E+00  0.00000000E+00
  0.00000000E+00  0.00000000E+00  0.00000000E+00  0.00000000E+00  0.00000000E+00
  0.00000000E+00  0.00000000E+00  0.00000000E+00  0.00000000E+00  0.00000000E+00
ZRed-Constraint1                           R   N=          80
  2.07024897E+00  2.07264324E+00  2.07255143E+00  2.86723539E+00  2.36397921E+00
  2.57157757E+00  1.90582452E+00  2.76567589E+00  2.06477018E+00  2.07431260E+00
  2.91013083E+00  2.35605426E+00  2.55825210E+00  1.91915094E+00  2.75665050E+00
  2.06718718E+00  2.07211097E+00  2.07578611E+00  1.90565519E+00  1.90719249E+00
  1.97309392E+00  1.87920943E+00  1.89686113E+00  1.89955136E+00  2.12155601E+00
  2.04422631E+00  2.11739779E+00  2.09044328E+00  2.13137692E+00  2.06125323E+00
  1.90040417E+00  1.88857993E+00  1.97671368E+00  1.91393057E+00  1.86755017E+00
  1.91618079E+00  2.11133055E+00  2.01604202E+00  2.15577381E+00  2.06715289E+00
  2.11636998E+00  2.09908103E+00  1.89926540E+00  1.92080316E+00  1.94017607E+00
  1.91205134E+00  1.90845683E+00  1.88295397E+00 -3.13280586E+00  1.22070754E-02
 -1.01411457E+00  2.13089836E+00  1.02783166E+00 -2.11034071E+00  7.11495163E-02
 -3.08682897E+00 -3.06703154E+00  5.81752831E-02  2.76872121E+00  6.89448654E-01
 -1.43911852E+00 -3.88994907E-01 -2.46826746E+00  1.68635067E+00 -1.96911939E+00
  1.18163210E+00  1.25071926E-01 -3.00736189E+00  2.20099824E+00 -9.31435582E-01
 -3.01687620E-02 -3.13521004E+00  3.12084319E+00  1.58019165E-02 -2.97831045E+00
 -8.82987334E-01  1.20208485E+00  2.00496227E-01  2.29581934E+00 -1.90229378E+00
ZRed-Constraint2                           R   N=          80
  2.04651058E+00  2.04760263E+00  2.04500239E+00  2.85682157E+00  2.28002017E+00
  2.54754007E+00  1.87879172E+00  2.74141952E+00  2.03818506E+00  2.04437365E+00
  2.88683176E+00  2.27244419E+00  2.53931523E+00  1.88300281E+00  2.73342337E+00
  2.04444614E+00  2.04240583E+00  2.04916817E+00  1.90019108E+00  1.91097546E+00
  1.98000416E+00  1.88201350E+00  1.89104626E+00  1.89715102E+00  2.11844637E+00
  2.03194394E+00  2.13264120E+00  2.08286566E+00  2.14176838E+00  2.05689420E+00
  1.89534835E+00  1.89241466E+00  1.97019204E+00  1.90597559E+00  1.87155652E+00
  1.92735372E+00  2.11322454E+00  2.00912253E+00  2.16082250E+00  2.06434842E+00
  2.11798403E+00  2.09001315E+00  1.89416471E+00  1.92675217E+00  1.94992476E+00
  1.90252140E+00  1.90046583E+00  1.88940323E+00  2.97568304E+00 -1.84361588E-01
 -1.19533912E+00  1.92780156E+00  8.45420188E-01 -2.31462444E+00  1.13774720E-01
 -3.09102147E+00 -3.04643295E+00  3.19561718E-02  2.71617050E+00  6.47095346E-01
 -1.49411042E+00 -4.87735972E-01 -2.55681112E+00  1.58516841E+00 -1.88650075E+00
  1.26089946E+00  2.00185950E-01 -2.93559915E+00  2.27511037E+00 -8.60674733E-01
 -9.83490330E-02 -3.08182397E+00  3.04922962E+00  6.57546839E-02 -3.01698803E+00
 -9.32899774E-01  1.17059792E+00  2.85008781E-01  2.36909703E+00 -1.81059058E+00
Force Field                                I                0
Atom Types                                 C   N=          19
                                                            
                                                            
                                                            
                                                
Int Atom Types                             I   N=          19
           0           0           0           0           0           0
           0           0           0           0           0           0
           0           0           0           0           0           0
           0
MM charges                                 R   N=          19
  0.00000000E+00  0.00000000E+00  0.00000000E+00  0.00000000E+00  0.00000000E+00
  0.00000000E+00  0.00000000E+00  0.00000000E+00  0.00000000E+00  0.00000000E+00
  0.00000000E+00  0.00000000E+00  0.00000000E+00  0.00000000E+00  0.00000000E+00
  0.00000000E+00  0.00000000E+00  0.00000000E+00  0.00000000E+00
Integer atomic weights                     I   N=          19
          12           1           1           1          12          16
          14           1          12           1           1          12
          16          14           1          12           1           1
           1
Real atomic weights                        R   N=          19
  1.20000000E+01  1.00782504E+00  1.00782504E+00  1.00782504E+00  1.20000000E+01
  1.59949146E+01  1.40030740E+01  1.00782504E+00  1.20000000E+01  1.00782504E+00
  1.00782504E+00  1.20000000E+01  1.59949146E+01  1.40030740E+01  1.00782504E+00
  1.20000000E+01  1.00782504E+00  1.00782504E+00  1.00782504E+00
Atom fragment info                         I   N=          19
           0           0           0           0           0           0
           0           0           0           0           0           0
           0           0           0           0           0           0
           0
Atom residue num                           I   N=          19
           0           0           0           0           0           0
           0           0           0           0           0           0
           0           0           0           0           0           0
           0
Nuclear spins                              I   N=          19
           0           1           1           1           0           0
           2           1           0           1           1           0
           0           2           1           0           1           1
           1
Nuclear ZEff                               R   N=          19
 -3.60000000E+00 -1.00000000E+00 -1.00000000E+00 -1.00000000E+00 -3.60000000E+00
 -5.60000000E+00 -4.55000000E+00 -1.00000000E+00 -3.60000000E+00 -1.00000000E+00
 -1.00000000E+00 -3.60000000E+00 -5.60000000E+00 -4.55000000E+00 -1.00000000E+00
 -3.60000000E+00 -1.00000000E+00 -1.00000000E+00 -1.00000000E+00
Nuclear ZNuc                               R   N=          19
  6.00000000E+00  1.00000000E+00  1.00000000E+00  1.00000000E+00  6.00000000E+00
  8.00000000E+00  7.00000000E+00  1.00000000E+00  6.00000000E+00  1.00000000E+00
  1.00000000E+00  6.00000000E+00  8.00000000E+00  7.00000000E+00  1.00000000E+00
  6.00000000E+00  1.00000000E+00  1.00000000E+00  1.00000000E+00
Nuclear QMom                               R   N=          19
  0.00000000E+00  0.00000000E+00  0.00000000E+00  0.00000000E+00  0.00000000E+00
  0.00000000E+00  2.04400000E+00  0.00000000E+00  0.00000000E+00  0.00000000E+00
  0.00000000E+00  0.00000000E+00  0.00000000E+00  2.04400000E+00  0.00000000E+00
  0.00000000E+00  0.00000000E+00  0.00000000E+00  0.00000000E+00
Nuclear GFac                               R   N=          19
  0.00000000E+00  2.79284600E+00  2.79284600E+00  2.79284600E+00  0.00000000E+00
  0.00000000E+00  4.03761000E-01  2.79284600E+00  0.00000000E+00  2.79284600E+00
  2.79284600E+00  0.00000000E+00  0.00000000E+00  4.03761000E-01  2.79284600E+00
  0.00000000E+00  2.79284600E+00  2.79284600E+00  2.79284600E+00
MicOpt                                     I   N=          19
          -1          -1          -1          -1          -1          -1
          -1          -1          -1          -1          -1          -1
          -1          -1          -1          -1          -1          -1
          -1
Number of residues                         I                0
Number of secondary structures             I                0
Number of contracted shells                I               56
Number of primitive shells                 I              139
Pure/Cartesian d shells                    I                1
Pure/Cartesian f shells                    I                0
Highest angular momentum                   I                1
Largest degree of contraction              I                6
Shell types                                I   N=          56
           0          -1          -1          -1           0           0
           0           0           0           0           0          -1
          -1          -1           0          -1          -1          -1
           0          -1          -1          -1           0           0
           0          -1          -1          -1           0           0
           0           0           0          -1          -1          -1
           0          -1          -1          -1           0          -1
          -1          -1           0           0           0          -1
          -1          -1           0           0           0           0
           0           0
Number of primitives per shell             I   N=          56
           6           3           1           1           3           1
           3           1           3           1           6           3
           1           1           6           3           1           1
           6           3           1           1           3           1
           6           3           1           1           3           1
           3           1           6           3           1           1
           6           3           1           1           6           3
           1           1           3           1           6           3
           1           1           3           1           3           1
           3           1
Shell to atom map                          I   N=          56
           1           1           1           1           2           2
           3           3           4           4           5           5
           5           5           6           6           6           6
           7           7           7           7           8           8
           9           9           9           9          10          10
          11          11          12          12          12          12
          13          13          13          13          14          14
          14          14          15          15          16          16
          16          16          17          17          18          18
          19          19
Primitive exponents                        R   N=         139
  3.04752488E+03  4.57369518E+02  1.03948685E+02  2.92101553E+01  9.28666296E+00
  3.16392696E+00  7.86827235E+00  1.88128854E+00  5.44249258E-01  1.68714478E-01
  4.38000000E-02  1.87311370E+01  2.82539436E+00  6.40121692E-01  1.61277759E-01
  1.87311370E+01  2.82539436E+00  6.40121692E-01  1.61277759E-01  1.87311370E+01
  2.82539436E+00  6.40121692E-01  1.61277759E-01  3.04752488E+03  4.57369518E+02
  1.03948685E+02  2.92101553E+01  9.28666296E+00  3.16392696E+00  7.86827235E+00
  1.88128854E+00  5.44249258E-01  1.68714478E-01  4.38000000E-02  5.48467166E+03
  8.25234946E+02  1.88046958E+02  5.29645000E+01  1.68975704E+01  5.79963534E+00
  1.55396162E+01  3.59993359E+00  1.01376175E+00  2.70005823E-01  8.45000000E-02
  4.17351146E+03  6.27457911E+02  1.42902093E+02  4.02343293E+01  1.28202129E+01
  4.39043701E+00  1.16263619E+01  2.71627981E+00  7.72218397E-01  2.12031498E-01
  6.39000000E-02  1.87311370E+01  2.82539436E+00  6.40121692E-01  1.61277759E-01
  3.04752488E+03  4.57369518E+02  1.03948685E+02  2.92101553E+01  9.28666296E+00
  3.16392696E+00  7.86827235E+00  1.88128854E+00  5.44249258E-01  1.68714478E-01
  4.38000000E-02  1.87311370E+01  2.82539436E+00  6.40121692E-01  1.61277759E-01
  1.87311370E+01  2.82539436E+00  6.40121692E-01  1.61277759E-01  3.04752488E+03
  4.57369518E+02  1.03948685E+02  2.92101553E+01  9.28666296E+00  3.16392696E+00
  7.86827235E+00  1.88128854E+00  5.44249258E-01  1.68714478E-01  4.38000000E-02
  5.48467166E+03  8.25234946E+02  1.88046958E+02  5.29645000E+01  1.68975704E+01
  5.79963534E+00  1.55396162E+01  3.59993359E+00  1.01376175E+00  2.70005823E-01
  8.45000000E-02  4.17351146E+03  6.27457911E+02  1.42902093E+02  4.02343293E+01
  1.28202129E+01  4.39043701E+00  1.16263619E+01  2.71627981E+00  7.72218397E-01
  2.12031498E-01  6.39000000E-02  1.87311370E+01  2.82539436E+00  6.40121692E-01
  1.61277759E-01  3.04752488E+03  4.57369518E+02  1.03948685E+02  2.92101553E+01
  9.28666296E+00  3.16392696E+00  7.86827235E+00  1.88128854E+00  5.44249258E-01
  1.68714478E-01  4.38000000E-02  1.87311370E+01  2.82539436E+00  6.40121692E-01
  1.61277759E-01  1.87311370E+01  2.82539436E+00  6.40121692E-01  1.61277759E-01
  1.87311370E+01  2.82539436E+00  6.40121692E-01  1.61277759E-01
Contraction coefficients                   R   N=         139
  1.83473713E-03  1.40373228E-02  6.88426223E-02  2.32184443E-01  4.67941348E-01
  3.62311985E-01 -1.19332420E-01 -1.60854152E-01  1.14345644E+00  1.00000000E+00
  1.00000000E+00  3.34946043E-02  2.34726953E-01  8.13757326E-01  1.00000000E+00
  3.34946043E-02  2.34726953E-01  8.13757326E-01  1.00000000E+00  3.34946043E-02
  2.34726953E-01  8.13757326E-01  1.00000000E+00  1.83473713E-03  1.40373228E-02
  6.88426223E-02  2.32184443E-01  4.67941348E-01  3.62311985E-01 -1.19332420E-01
 -1.60854152E-01  1.14345644E+00  1.00000000E+00  1.00000000E+00  1.83107443E-03
  1.39501722E-02  6.84450781E-02  2.32714336E-01  4.70192898E-01  3.58520853E-01
 -1.10777550E-01 -1.48026263E-01  1.13076702E+00  1.00000000E+00  1.00000000E+00
  1.83477216E-03  1.39946270E-02  6.85865518E-02  2.32240873E-01  4.69069948E-01
  3.60455199E-01 -1.14961182E-01 -1.69117479E-01  1.14585195E+00  1.00000000E+00
  1.00000000E+00  3.34946043E-02  2.34726953E-01  8.13757326E-01  1.00000000E+00
  1.83473713E-03  1.40373228E-02  6.88426223E-02  2.32184443E-01  4.67941348E-01
  3.62311985E-01 -1.19332420E-01 -1.60854152E-01  1.14345644E+00  1.00000000E+00
  1.00000000E+00  3.34946043E-02  2.34726953E-01  8.13757326E-01  1.00000000E+00
  3.34946043E-02  2.34726953E-01  8.13757326E-01  1.00000000E+00  1.83473713E-03
  1.40373228E-02  6.88426223E-02  2.32184443E-01  4.67941348E-01  3.62311985E-01
 -1.19332420E-01 -1.60854152E-01  1.14345644E+00  1.00000000E+00  1.00000000E+00
  1.83107443E-03  1.39501722E-02  6.84450781E-02  2.32714336E-01  4.70192898E-01
  3.58520853E-01 -1.10777550E-01 -1.48026263E-01  1.13076702E+00  1.00000000E+00
  1.00000000E+00  1.83477216E-03  1.39946270E-02  6.85865518E-02  2.32240873E-01
  4.69069948E-01  3.60455199E-01 -1.14961182E-01 -1.69117479E-01  1.14585195E+00
  1.00000000E+00  1.00000000E+00  3.34946043E-02  2.34726953E-01  8.13757326E-01
  1.00000000E+00  1.83473713E-03  1.40373228E-02  6.88426223E-02  2.32184443E-01
  4.67941348E-01  3.62311985E-01 -1.19332420E-01 -1.60854152E-01  1.14345644E+00
  1.00000000E+00  1.00000000E+00  3.34946043E-02  2.34726953E-01  8.13757326E-01
  1.00000000E+00  3.34946043E-02  2.34726953E-01  8.13757326E-01  1.00000000E+00
  3.34946043E-02  2.34726953E-01  8.13757326E-01  1.00000000E+00
P(S=P) Contraction coefficients            R   N=         139
  0.00000000E+00  0.00000000E+00  0.00000000E+00  0.00000000E+00  0.00000000E+00
  0.00000000E+00  6.89990666E-02  3.16423961E-01  7.44308291E-01  1.00000000E+00
  1.00000000E+00  0.00000000E+00  0.00000000E+00  0.00000000E+00  0.00000000E+00
  0.00000000E+00  0.00000000E+00  0.00000000E+00  0.00000000E+00  0.00000000E+00
  0.00000000E+00  0.00000000E+00  0.00000000E+00  0.00000000E+00  0.00000000E+00
  0.00000000E+00  0.00000000E+00  0.00000000E+00  0.00000000E+00  6.89990666E-02
  3.16423961E-01  7.44308291E-01  1.00000000E+00  1.00000000E+00  0.00000000E+00
  0.00000000E+00  0.00000000E+00  0.00000000E+00  0.00000000E+00  0.00000000E+00
  7.08742682E-02  3.39752839E-01  7.27158577E-01  1.00000000E+00  1.00000000E+00
  0.00000000E+00  0.00000000E+00  0.00000000E+00  0.00000000E+00  0.00000000E+00
  0.00000000E+00  6.75797439E-02  3.23907296E-01  7.40895140E-01  1.00000000E+00
  1.00000000E+00  0.00000000E+00  0.00000000E+00  0.00000000E+00  0.00000000E+00
  0.00000000E+00  0.00000000E+00  0.00000000E+00  0.00000000E+00  0.00000000E+00
  0.00000000E+00  6.89990666E-02  3.16423961E-01  7.44308291E-01  1.00000000E+00
  1.00000000E+00  0.00000000E+00  0.00000000E+00  0.00000000E+00  0.00000000E+00
  0.00000000E+00  0.00000000E+00  0.00000000E+00  0.00000000E+00  0.00000000E+00
  0.00000000E+00  0.00000000E+00  0.00000000E+00  0.00000000E+00  0.00000000E+00
  6.89990666E-02  3.16423961E-01  7.44308291E-01  1.00000000E+00  1.00000000E+00
  0.00000000E+00  0.00000000E+00  0.00000000E+00  0.00000000E+00  0.00000000E+00
  0.00000000E+00  7.08742682E-02  3.39752839E-01  7.27158577E-01  1.00000000E+00
  1.00000000E+00  0.00000000E+00  0.00000000E+00  0.00000000E+00  0.00000000E+00
  0.00000000E+00  0.00000000E+00  6.75797439E-02  3.23907296E-01  7.40895140E-01
  1.00000000E+00  1.00000000E+00  0.00000000E+00  0.00000000E+00  0.00000000E+00
  0.00000000E+00  0.00000000E+00  0.00000000E+00  0.00000000E+00  0.00000000E+00
  0.00000000E+00  0.00000000E+00  6.89990666E-02  3.16423961E-01  7.44308291E-01
  1.00000000E+00  1.00000000E+00  0.00000000E+00  0.00000000E+00  0.00000000E+00
  0.00000000E+00  0.00000000E+00  0.00000000E+00  0.00000000E+00  0.00000000E+00
  0.00000000E+00  0.00000000E+00  0.00000000E+00  0.00000000E+00
Coordinates of each shell                  R   N=         168
  5.87560508E+00  6.72902778E-01  1.37109441E+00  5.87560508E+00  6.72902778E-01
  1.37109441E+00  5.87560508E+00  6.72902778E-01  1.37109441E+00  5.87560508E+00
  6.72902778E-01  1.37109441E+00  6.29276093E+00 -9.41693609E-01  2.59787487E+00
  6.29276093E+00 -9.41693609E-01  2.59787487E+00  7.44863831E+00  9.48933245E-01
  5.00252819E-02  7.44863831E+00  9.48933245E-01  5.00252819E-02  5.71596121E+00
  2.38639215E+00  2.52605651E+00  5.71596121E+00  2.38639215E+00  2.52605651E+00
  3.45828751E+00  3.43280520E-01 -1.35213549E-01  3.45828751E+00  3.43280520E-01
 -1.35213549E-01  3.45828751E+00  3.43280520E-01 -1.35213549E-01  3.45828751E+00
  3.43280520E-01 -1.35213549E-01  2.70596458E+00  1.99930716E+00 -1.64517504E+00
  2.70596458E+00  1.99930716E+00 -1.64517504E+00  2.70596458E+00  1.99930716E+00
 -1.64517504E+00  2.70596458E+00  1.99930716E+00 -1.64517504E+00  2.13544199E+00
 -1.83122138E+00  2.31709341E-01  2.13544199E+00 -1.83122138E+00  2.31709341E-01
  2.13544199E+00 -1.83122138E+00  2.31709341E-01  2.13544199E+00 -1.83122138E+00
  2.31709341E-01  2.71597289E+00 -3.08151693E+00  1.54773062E+00  2.71597289E+00
 -3.08151693E+00  1.54773062E+00 -1.53809145E-01 -2.41982367E+00 -1.20420142E+00
 -1.53809145E-01 -2.41982367E+00 -1.20420142E+00 -1.53809145E-01 -2.41982367E+00
 -1.20420142E+00 -1.53809145E-01 -2.41982367E+00 -1.20420142E+00 -4.72219401E-01
 -4.45911626E+00 -1.14784057E+00 -4.72219401E-01 -4.45911626E+00 -1.14784057E+00
  1.37781325E-01 -1.81297568E+00 -3.16621142E+00  1.37781325E-01 -1.81297568E+00
 -3.16621142E+00 -2.54310225E+00 -1.15537722E+00 -1.26558117E-01 -2.54310225E+00
 -1.15537722E+00 -1.26558117E-01 -2.54310225E+00 -1.15537722E+00 -1.26558117E-01
 -2.54310225E+00 -1.15537722E+00 -1.26558117E-01 -4.26545380E+00 -2.44155527E+00
  8.37932848E-01 -4.26545380E+00 -2.44155527E+00  8.37932848E-01 -4.26545380E+00
 -2.44155527E+00  8.37932848E-01 -4.26545380E+00 -2.44155527E+00  8.37932848E-01
 -2.62629910E+00  1.39368342E+00 -3.26613002E-01 -2.62629910E+00  1.39368342E+00
 -3.26613002E-01 -2.62629910E+00  1.39368342E+00 -3.26613002E-01 -2.62629910E+00
  1.39368342E+00 -3.26613002E-01 -1.12496921E+00  2.29861893E+00 -1.10779199E+00
 -1.12496921E+00  2.29861893E+00 -1.10779199E+00 -4.77321327E+00  2.83427439E+00
  6.29723322E-01 -4.77321327E+00  2.83427439E+00  6.29723322E-01 -4.77321327E+00
  2.83427439E+00  6.29723322E-01 -4.77321327E+00  2.83427439E+00  6.29723322E-01