 Entering Gaussian System, Link 0=g09
 Input=G-stretched09.com
 Output=G-stretched09.log
 Initial command:
 /nexus/posix0/bmm/home/sucerqdl/sw/g09/l1.exe "/nexus/posix0/bmm/home/sucerqdl/sw/g09/g09_scratch/Gau-2879046.inp" -scrdir="/nexus/posix0/bmm/home/sucerqdl/sw/g09/g09_scratch/"
 Entering Link 1 = /nexus/posix0/bmm/home/sucerqdl/sw/g09/l1.exe PID=   2879048.
  
 Copyright (c) 1988,1990,1992,1993,1995,1998,2003,2009,2013,
            Gaussian, Inc.  All Rights Reserved.
  
 This is part of the Gaussian(R) 09 program.  It is based on
 the Gaussian(R) 03 system (copyright 2003, Gaussian, Inc.),
 the Gaussian(R) 98 system (copyright 1998, Gaussian, Inc.),
 the Gaussian(R) 94 system (copyright 1995, Gaussian, Inc.),
 the Gaussian 92(TM) system (copyright 1992, Gaussian, Inc.),
 the Gaussian 90(TM) system (copyright 1990, Gaussian, Inc.),
 the Gaussian 88(TM) system (copyright 1988, Gaussian, Inc.),
 the Gaussian 86(TM) system (copyright 1986, Carnegie Mellon
 University), and the Gaussian 82(TM) system (copyright 1983,
 Carnegie Mellon University). Gaussian is a federally registered
 trademark of Gaussian, Inc.
  
 This software contains proprietary and confidential information,
 including trade secrets, belonging to Gaussian, Inc.
  
 This software is provided under written license and may be
 used, copied, transmitted, or stored only in accord with that
 written license.
  
 The following legend is applicable only to US Government
 contracts under FAR:
  
                    RESTRICTED RIGHTS LEGEND
  
 Use, reproduction and disclosure by the US Government is
 subject to restrictions as set forth in subparagraphs (a)
 and (c) of the Commercial Computer Software - Restricted
 Rights clause in FAR 52.227-19.
  
 Gaussian, Inc.
 340 Quinnipiac St., Bldg. 40, Wallingford CT 06492
  
  
 ---------------------------------------------------------------
 Warning -- This program may not be used in any manner that
 competes with the business of Gaussian, Inc. or will provide
 assistance to any competitor of Gaussian, Inc.  The licensee
 of this program is prohibited from giving any competitor of
 Gaussian, Inc. access to this program.  By using this program,
 the user acknowledges that Gaussian, Inc. is engaged in the
 business of creating and licensing software in the field of
 computational chemistry and represents and warrants to the
 licensee that it is not a competitor of Gaussian, Inc. and that
 it will not use this program in any manner prohibited above.
 ---------------------------------------------------------------
  

 Cite this work as:
 Gaussian 09, Revision D.01,
 M. J. Frisch, G. W. Trucks, H. B. Schlegel, G. E. Scuseria, 
 M. A. Robb, J. R. Cheeseman, G. Scalmani, V. Barone, B. Mennucci, 
 G. A. Petersson, H. Nakatsuji, M. Caricato, X. Li, H. P. Hratchian, 
 A. F. Izmaylov, J. Bloino, G. Zheng, J. L. Sonnenberg, M. Hada, 
 M. Ehara, K. Toyota, R. Fukuda, J. Hasegawa, M. Ishida, T. Nakajima, 
 Y. Honda, O. Kitao, H. Nakai, T. Vreven, J. A. Montgomery, Jr., 
 J. E. Peralta, F. Ogliaro, M. Bearpark, J. J. Heyd, E. Brothers, 
 K. N. Kudin, V. N. Staroverov, T. Keith, R. Kobayashi, J. Normand, 
 K. Raghavachari, A. Rendell, J. C. Burant, S. S. Iyengar, J. Tomasi, 
 M. Cossi, N. Rega, J. M. Millam, M. Klene, J. E. Knox, J. B. Cross, 
 V. Bakken, C. Adamo, J. Jaramillo, R. Gomperts, R. E. Stratmann, 
 O. Yazyev, A. J. Austin, R. Cammi, C. Pomelli, J. W. Ochterski, 
 R. L. Martin, K. Morokuma, V. G. Zakrzewski, G. A. Voth, 
 P. Salvador, J. J. Dannenberg, S. Dapprich, A. D. Daniels, 
 O. Farkas, J. B. Foresman, J. V. Ortiz, J. Cioslowski, 
 and D. J. Fox, Gaussian, Inc., Wallingford CT, 2013.
 
 ******************************************
 Gaussian 09:  ES64L-G09RevD.01 24-Apr-2013
                 3-Sep-2025 
 ******************************************
 %mem=60GB
 %NProcShared=16
 Will use up to   16 processors via shared memory.
 %chk=G-stretched09
 ----------------------------------
 #P bmk/6-31+g opt(modredun,calcfc)
 ----------------------------------
 1/10=4,14=-1,18=120,19=15,26=3,38=1/1,3;
 2/9=110,12=2,17=6,18=5,40=1/2;
 3/5=1,6=6,7=10,11=2,16=1,25=1,30=1,71=2,74=-34,140=1/1,2,3;
 4//1;
 5/5=2,38=5/2;
 8/6=4,10=90,11=11/1;
 11/6=1,8=1,9=11,15=111,16=1/1,2,10;
 10/6=1,13=1/2;
 6/7=2,8=2,9=2,10=2,28=1/1;
 7/10=1,18=20,25=1/1,2,3,16;
 1/10=4,14=-1,18=20,19=15,26=3/3(2);
 2/9=110/2;
 99//99;
 2/9=110/2;
 3/5=1,6=6,7=10,11=2,16=1,25=1,30=1,71=1,74=-34/1,2,3;
 4/5=5,16=3,69=1/1;
 5/5=2,38=5/2;
 7//1,2,3,16;
 1/14=-1,18=20,19=15,26=3/3(-5);
 2/9=110/2;
 6/7=2,8=2,9=2,10=2,19=2,28=1/1;
 99/9=1/99;
 Leave Link    1 at Wed Sep  3 14:24:31 2025, MaxMem=  8053063680 cpu:         1.2
 (Enter /nexus/posix0/bmm/home/sucerqdl/sw/g09/l101.exe)
 ------------------------------
 Gaussian input prepared by ASE
 ------------------------------
 Symbolic Z-matrix:
 Charge =  0 Multiplicity = 1
 C                     0.        0.        0. 
 H                    -0.15148   1.08112  -0.00006 
 H                    -0.34002  -0.497    -0.9112 
 H                    -0.34002  -0.4969    0.91125 
 C                     1.86793  -0.51094   0.00003 
 O                     1.91646  -1.74583   0.00011 
 N                     3.16061   0.2084   -0.00001 
 H                     3.16922   1.22075  -0.00008 
 C                     4.611    -0.50553   0.00003 
 H                     4.62748  -1.14992  -0.88757 
 H                     4.62748  -1.14981   0.88771 
 C                     6.11987   0.35771  -0.00003 
 O                     6.07347   1.58865  -0.00011 
 N                     7.39572  -0.37125   0.00003 
 H                     7.28273  -1.37973   0.0001 
 C                     9.0857    0.        0. 
 H                     9.48317  -0.44777  -0.91488 
 H                     9.1556    1.08872  -0.00005 
 H                     9.48317  -0.44769   0.91492 
 
 Add virtual bond connecting atoms C5         and C1         Dist= 3.66D+00.
 The following ModRedundant input section has been read:
 B       1      16 F                                                           
 
 NAtoms=     19 NQM=       19 NQMF=       0 NMMI=      0 NMMIF=      0
                NMic=       0 NMicF=      0.
                    Isotopes and Nuclear Properties:
 (Nuclear quadrupole moments (NQMom) in fm**2, nuclear magnetic moments (NMagM)
  in nuclear magnetons)

  Atom         1           2           3           4           5           6           7           8           9          10
 IAtWgt=          12           1           1           1          12          16          14           1          12           1
 AtmWgt=  12.0000000   1.0078250   1.0078250   1.0078250  12.0000000  15.9949146  14.0030740   1.0078250  12.0000000   1.0078250
 NucSpn=           0           1           1           1           0           0           2           1           0           1
 AtZEff=   0.0000000   0.0000000   0.0000000   0.0000000   0.0000000   0.0000000   0.0000000   0.0000000   0.0000000   0.0000000
 NQMom=    0.0000000   0.0000000   0.0000000   0.0000000   0.0000000   0.0000000   2.0440000   0.0000000   0.0000000   0.0000000
 NMagM=    0.0000000   2.7928460   2.7928460   2.7928460   0.0000000   0.0000000   0.4037610   2.7928460   0.0000000   2.7928460
 AtZNuc=   6.0000000   1.0000000   1.0000000   1.0000000   6.0000000   8.0000000   7.0000000   1.0000000   6.0000000   1.0000000

  Atom        11          12          13          14          15          16          17          18          19
 IAtWgt=           1          12          16          14           1          12           1           1           1
 AtmWgt=   1.0078250  12.0000000  15.9949146  14.0030740   1.0078250  12.0000000   1.0078250   1.0078250   1.0078250
 NucSpn=           1           0           0           2           1           0           1           1           1
 AtZEff=   0.0000000   0.0000000   0.0000000   0.0000000   0.0000000   0.0000000   0.0000000   0.0000000   0.0000000
 NQMom=    0.0000000   0.0000000   0.0000000   2.0440000   0.0000000   0.0000000   0.0000000   0.0000000   0.0000000
 NMagM=    2.7928460   0.0000000   0.0000000   0.4037610   2.7928460   0.0000000   2.7928460   2.7928460   2.7928460
 AtZNuc=   1.0000000   6.0000000   8.0000000   7.0000000   1.0000000   6.0000000   1.0000000   1.0000000   1.0000000
 Leave Link  101 at Wed Sep  3 14:24:31 2025, MaxMem=  8053063680 cpu:         5.8
 (Enter /nexus/posix0/bmm/home/sucerqdl/sw/g09/l103.exe)

 GradGradGradGradGradGradGradGradGradGradGradGradGradGradGradGradGradGrad
 Berny optimization.
 Initialization pass.
                           ----------------------------
                           !    Initial Parameters    !
                           ! (Angstroms and Degrees)  !
 --------------------------                            --------------------------
 ! Name  Definition              Value          Derivative Info.                !
 --------------------------------------------------------------------------------
 ! R1    R(1,2)                  1.0917         calculate D2E/DX2 analytically  !
 ! R2    R(1,3)                  1.0922         calculate D2E/DX2 analytically  !
 ! R3    R(1,4)                  1.0922         calculate D2E/DX2 analytically  !
 ! R4    R(1,5)                  1.9365         calculate D2E/DX2 analytically  !
 ! R5    R(1,16)                 9.0857         frozen, calculate D2E/DX2 analyt!
 ! R6    R(5,6)                  1.2358         calculate D2E/DX2 analytically  !
 ! R7    R(5,7)                  1.4794         calculate D2E/DX2 analytically  !
 ! R8    R(7,8)                  1.0124         calculate D2E/DX2 analytically  !
 ! R9    R(7,9)                  1.6166         calculate D2E/DX2 analytically  !
 ! R10   R(9,10)                 1.097          calculate D2E/DX2 analytically  !
 ! R11   R(9,11)                 1.097          calculate D2E/DX2 analytically  !
 ! R12   R(9,12)                 1.7384         calculate D2E/DX2 analytically  !
 ! R13   R(12,13)                1.2318         calculate D2E/DX2 analytically  !
 ! R14   R(12,14)                1.4694         calculate D2E/DX2 analytically  !
 ! R15   R(14,15)                1.0148         calculate D2E/DX2 analytically  !
 ! R16   R(14,16)                1.7303         calculate D2E/DX2 analytically  !
 ! R17   R(16,17)                1.0934         calculate D2E/DX2 analytically  !
 ! R18   R(16,18)                1.091          calculate D2E/DX2 analytically  !
 ! R19   R(16,19)                1.0934         calculate D2E/DX2 analytically  !
 ! A1    A(2,1,3)              114.0414         calculate D2E/DX2 analytically  !
 ! A2    A(2,1,4)              114.0414         calculate D2E/DX2 analytically  !
 ! A3    A(2,1,5)              113.2743         calculate D2E/DX2 analytically  !
 ! A4    A(3,1,4)              113.0862         calculate D2E/DX2 analytically  !
 ! A5    A(3,1,5)              100.3837         calculate D2E/DX2 analytically  !
 ! A6    A(4,1,5)              100.3837         calculate D2E/DX2 analytically  !
 ! A7    A(1,5,6)              107.5488         calculate D2E/DX2 analytically  !
 ! A8    A(1,5,7)              135.6073         calculate D2E/DX2 analytically  !
 ! A9    A(6,5,7)              116.8438         calculate D2E/DX2 analytically  !
 ! A10   A(5,7,8)              119.5815         calculate D2E/DX2 analytically  !
 ! A11   A(5,7,9)              124.6974         calculate D2E/DX2 analytically  !
 ! A12   A(8,7,9)              115.7211         calculate D2E/DX2 analytically  !
 ! A13   A(7,9,10)             105.8362         calculate D2E/DX2 analytically  !
 ! A14   A(7,9,11)             105.8362         calculate D2E/DX2 analytically  !
 ! A15   A(7,9,12)             124.0179         calculate D2E/DX2 analytically  !
 ! A16   A(10,9,11)            108.0305         calculate D2E/DX2 analytically  !
 ! A17   A(10,9,12)            106.1787         calculate D2E/DX2 analytically  !
 ! A18   A(11,9,12)            106.1789         calculate D2E/DX2 analytically  !
 ! A19   A(9,12,13)            117.6157         calculate D2E/DX2 analytically  !
 ! A20   A(9,12,14)            120.4842         calculate D2E/DX2 analytically  !
 ! A21   A(13,12,14)           121.9            calculate D2E/DX2 analytically  !
 ! A22   A(12,14,15)           113.349          calculate D2E/DX2 analytically  !
 ! A23   A(12,14,16)           137.8686         calculate D2E/DX2 analytically  !
 ! A24   A(15,14,16)           108.7825         calculate D2E/DX2 analytically  !
 ! A25   A(14,16,17)           105.4978         calculate D2E/DX2 analytically  !
 ! A26   A(14,16,18)           106.0637         calculate D2E/DX2 analytically  !
 ! A27   A(14,16,19)           105.4975         calculate D2E/DX2 analytically  !
 ! A28   A(17,16,18)           112.6658         calculate D2E/DX2 analytically  !
 ! A29   A(17,16,19)           113.5989         calculate D2E/DX2 analytically  !
 ! A30   A(18,16,19)           112.6658         calculate D2E/DX2 analytically  !
 ! D1    D(2,1,5,6)            179.9999         calculate D2E/DX2 analytically  !
 ! D2    D(2,1,5,7)             -0.0002         calculate D2E/DX2 analytically  !
 ! D3    D(3,1,5,6)            -58.0157         calculate D2E/DX2 analytically  !
 ! D4    D(3,1,5,7)            121.9843         calculate D2E/DX2 analytically  !
 ! D5    D(4,1,5,6)             58.0154         calculate D2E/DX2 analytically  !
 ! D6    D(4,1,5,7)           -121.9846         calculate D2E/DX2 analytically  !
 ! D7    D(1,5,7,8)             -0.0002         calculate D2E/DX2 analytically  !
 ! D8    D(1,5,7,9)            180.0            calculate D2E/DX2 analytically  !
 ! D9    D(6,5,7,8)            179.9998         calculate D2E/DX2 analytically  !
 ! D10   D(6,5,7,9)              0.0            calculate D2E/DX2 analytically  !
 ! D11   D(5,7,9,10)            57.2562         calculate D2E/DX2 analytically  !
 ! D12   D(5,7,9,11)           -57.2561         calculate D2E/DX2 analytically  !
 ! D13   D(5,7,9,12)           180.0            calculate D2E/DX2 analytically  !
 ! D14   D(8,7,9,10)          -122.7436         calculate D2E/DX2 analytically  !
 ! D15   D(8,7,9,11)           122.7441         calculate D2E/DX2 analytically  !
 ! D16   D(8,7,9,12)             0.0002         calculate D2E/DX2 analytically  !
 ! D17   D(7,9,12,13)           -0.0004         calculate D2E/DX2 analytically  !
 ! D18   D(7,9,12,14)          179.9997         calculate D2E/DX2 analytically  !
 ! D19   D(10,9,12,13)         122.5901         calculate D2E/DX2 analytically  !
 ! D20   D(10,9,12,14)         -57.4098         calculate D2E/DX2 analytically  !
 ! D21   D(11,9,12,13)        -122.5911         calculate D2E/DX2 analytically  !
 ! D22   D(11,9,12,14)          57.4091         calculate D2E/DX2 analytically  !
 ! D23   D(9,12,14,15)          -0.0002         calculate D2E/DX2 analytically  !
 ! D24   D(9,12,14,16)         179.9998         calculate D2E/DX2 analytically  !
 ! D25   D(13,12,14,15)        179.9999         calculate D2E/DX2 analytically  !
 ! D26   D(13,12,14,16)         -0.0001         calculate D2E/DX2 analytically  !
 ! D27   D(12,14,16,17)       -119.7333         calculate D2E/DX2 analytically  !
 ! D28   D(12,14,16,18)          0.0016         calculate D2E/DX2 analytically  !
 ! D29   D(12,14,16,19)        119.7363         calculate D2E/DX2 analytically  !
 ! D30   D(15,14,16,17)         60.2667         calculate D2E/DX2 analytically  !
 ! D31   D(15,14,16,18)       -179.9984         calculate D2E/DX2 analytically  !
 ! D32   D(15,14,16,19)        -60.2637         calculate D2E/DX2 analytically  !
 --------------------------------------------------------------------------------
 Trust Radius=3.00D-01 FncErr=1.00D-07 GrdErr=1.00D-06
 Number of steps in this run=     91 maximum allowed number of steps=    114.
 GradGradGradGradGradGradGradGradGradGradGradGradGradGradGradGradGradGrad

 Leave Link  103 at Wed Sep  3 14:24:31 2025, MaxMem=  8053063680 cpu:         0.2
 (Enter /nexus/posix0/bmm/home/sucerqdl/sw/g09/l202.exe)
                          Input orientation:                          
 ---------------------------------------------------------------------
 Center     Atomic      Atomic             Coordinates (Angstroms)
 Number     Number       Type             X           Y           Z
 ---------------------------------------------------------------------
      1          6           0        0.000000    0.000000    0.000000
      2          1           0       -0.151484    1.081117   -0.000063
      3          1           0       -0.340023   -0.497004   -0.911198
      4          1           0       -0.340022   -0.496897    0.911255
      5          6           0        1.867927   -0.510940    0.000030
      6          8           0        1.916462   -1.745828    0.000105
      7          7           0        3.160614    0.208401   -0.000015
      8          1           0        3.169217    1.220748   -0.000080
      9          6           0        4.610995   -0.505526    0.000029
     10          1           0        4.627483   -1.149916   -0.887572
     11          1           0        4.627482   -1.149809    0.887708
     12          6           0        6.119867    0.357709   -0.000025
     13          8           0        6.073473    1.588652   -0.000109
     14          7           0        7.395718   -0.371252    0.000026
     15          1           0        7.282730   -1.379735    0.000096
     16          6           0        9.085696    0.000000    0.000000
     17          1           0        9.483168   -0.447770   -0.914882
     18          1           0        9.155602    1.088717   -0.000047
     19          1           0        9.483173   -0.447692    0.914918
 ---------------------------------------------------------------------
                    Distance matrix (angstroms):
                    1          2          3          4          5
     1  C    0.000000
     2  H    1.091678   0.000000
     3  H    1.092204   1.831988   0.000000
     4  H    1.092203   1.831987   1.822453   0.000000
     5  C    1.936546   2.571510   2.388634   2.388633   0.000000
     6  O    2.592440   3.502574   2.735281   2.735278   1.235842
     7  N    3.167477   3.425146   3.685418   3.685419   1.479354
     8  H    3.396198   3.323635   4.011928   4.011931   2.166124
     9  C    4.638624   5.019825   5.034182   5.034182   2.743073
    10  H    4.850123   5.348243   5.010286   5.323375   2.968380
    11  H    4.850121   5.348241   5.323375   5.010284   2.968378
    12  C    6.130312   6.312936   6.579586   6.579586   4.339763
    13  O    6.277809   6.245613   6.805364   6.805368   4.700522
    14  N    7.405030   7.685677   7.790239   7.790238   5.529556
    15  H    7.412275   7.830921   7.727615   7.727611   5.484059
    16  C    9.085696   9.300232   9.482694   9.482693   7.235831
    17  H    9.537714   9.798005   9.823315   9.991610   7.670264
    18  H    9.220106   9.307089   9.670140   9.670136   7.461174
    19  H    9.537719   9.798013   9.991612   9.823320   7.670267
                    6          7          8          9         10
     6  O    0.000000
     7  N    2.316662   0.000000
     8  H    3.220243   1.012383   0.000000
     9  C    2.966286   1.616570   2.249166   0.000000
    10  H    2.914226   2.187347   2.921341   1.096971   0.000000
    11  H    2.914224   2.187347   2.921342   1.096971   1.775280
    12  C    4.700370   2.963018   3.074276   1.738353   2.299540
    13  O    5.329118   3.223328   2.927466   2.554296   3.221527
    14  N    5.649044   4.274588   4.516390   2.787958   3.009531
    15  H    5.378741   4.417468   4.866570   2.811122   2.809112
    16  C    7.378742   5.928747   6.041106   4.503167   4.688898
    17  H    7.731571   6.422012   6.594452   4.957667   4.906265
    18  H    7.774304   6.059278   5.987842   4.816126   5.128650
    19  H    7.731569   6.422018   6.594464   4.957670   5.226837
                   11         12         13         14         15
    11  H    0.000000
    12  C    2.299542   0.000000
    13  O    3.221534   1.231817   0.000000
    14  N    3.009528   1.469415   2.364224   0.000000
    15  H    2.809104   2.090685   3.205250   1.014793   0.000000
    16  C    4.688898   2.987323   3.405482   1.730276   2.270321
    17  H    5.226842   3.577367   4.075518   2.280430   2.558841
    18  H    5.128643   3.122509   3.122412   2.286636   3.098533
    19  H    4.906266   3.577376   4.075540   2.280426   2.558819
                   16         17         18         19
    16  C    0.000000
    17  H    1.093385   0.000000
    18  H    1.090959   1.817970   0.000000
    19  H    1.093385   1.829800   1.817970   0.000000
 Stoichiometry    C5H10N2O2
 Framework group  C1[X(C5H10N2O2)]
 Deg. of freedom    51
 Full point group                 C1      NOp   1
 Largest Abelian subgroup         C1      NOp   1
 Largest concise Abelian subgroup C1      NOp   1
                         Standard orientation:                         
 ---------------------------------------------------------------------
 Center     Atomic      Atomic             Coordinates (Angstroms)
 Number     Number       Type             X           Y           Z
 ---------------------------------------------------------------------
      1          6           0       -4.466580    0.551339   -0.000005
      2          1           0       -4.514020    1.641986   -0.000068
      3          1           0       -4.852556    0.089116   -0.911203
      4          1           0       -4.852546    0.089222    0.911250
      5          6           0       -2.656050   -0.135826    0.000025
      6          8           0       -2.725787   -1.369699    0.000100
      7          7           0       -1.300518    0.456646   -0.000020
      8          1           0       -1.195180    1.463534   -0.000085
      9          6           0        0.074973   -0.392661    0.000023
     10          1           0        0.029784   -1.035676   -0.887578
     11          1           0        0.029794   -1.035569    0.887702
     12          6           0        1.659456    0.322381   -0.000031
     13          8           0        1.730946    1.552121   -0.000115
     14          7           0        2.859778   -0.525207    0.000020
     15          1           0        2.650902   -1.518271    0.000090
     16          6           0        4.577507   -0.317209   -0.000005
     17          1           0        4.930354   -0.800925   -0.914887
     18          1           0        4.751169    0.759839   -0.000052
     19          1           0        4.930367   -0.800847    0.914913
 ---------------------------------------------------------------------
 Rotational constants (GHZ):      5.0871479      0.4735912      0.4369647
 Leave Link  202 at Wed Sep  3 14:24:31 2025, MaxMem=  8053063680 cpu:         0.2
 (Enter /nexus/posix0/bmm/home/sucerqdl/sw/g09/l301.exe)
 Standard basis: 6-31+G (6D, 7F)
 Ernie: Thresh=  0.10000D-02 Tol=  0.10000D-05 Strict=F.
 There are   137 symmetry adapted cartesian basis functions of A   symmetry.
 There are   137 symmetry adapted basis functions of A   symmetry.
   137 basis functions,   274 primitive gaussians,   137 cartesian basis functions
    35 alpha electrons       35 beta electrons
       nuclear repulsion energy       402.3269955596 Hartrees.
 IExCor= 3226 DFT=T Ex+Corr=BMK ExCW=0 ScaHFX=  0.420000
 ScaDFX=  1.000000  1.000000  1.000000  1.000000 ScalE2=  1.000000  1.000000
 IRadAn=      0 IRanWt=     -1 IRanGd=            0 ICorTp=0 IEmpDi=  4
 NAtoms=   19 NActive=   19 NUniq=   19 SFac= 1.00D+00 NAtFMM=   60 NAOKFM=F Big=F
 Integral buffers will be    131072 words long.
 Raffenetti 2 integral format.
 Two-electron integral symmetry is turned on.
 Leave Link  301 at Wed Sep  3 14:24:31 2025, MaxMem=  8053063680 cpu:         0.7
 (Enter /nexus/posix0/bmm/home/sucerqdl/sw/g09/l302.exe)
 NPDir=0 NMtPBC=     1 NCelOv=     1 NCel=       1 NClECP=     1 NCelD=      1
         NCelK=      1 NCelE2=     1 NClLst=     1 CellRange=     0.0.
 One-electron integrals computed using PRISM.
 NBasis=   137 RedAO= T EigKep=  5.26D-05  NBF=   137
 NBsUse=   137 1.00D-06 EigRej= -1.00D+00 NBFU=   137
 Precomputing XC quadrature grid using
 IXCGrd= 4 IRadAn=           0 IRanWt=          -1 IRanGd=           0 AccXCQ= 0.00D+00.
 Generated NRdTot=       0 NPtTot=           0 NUsed=           0 NTot=          32
 NSgBfM=   136   136   136   136   136 MxSgAt=    19 MxSgA2=    19.
 Leave Link  302 at Wed Sep  3 14:24:32 2025, MaxMem=  8053063680 cpu:         2.0
 (Enter /nexus/posix0/bmm/home/sucerqdl/sw/g09/l303.exe)
 DipDrv:  MaxL=1.
 Leave Link  303 at Wed Sep  3 14:24:32 2025, MaxMem=  8053063680 cpu:         0.4
 (Enter /nexus/posix0/bmm/home/sucerqdl/sw/g09/l401.exe)
 ExpMin= 4.38D-02 ExpMax= 5.48D+03 ExpMxC= 8.25D+02 IAcc=2 IRadAn=         4 AccDes= 0.00D+00
 Harris functional with IExCor= 1009 and IRadAn=       4 diagonalized for initial guess.
 HarFok:  IExCor= 1009 AccDes= 0.00D+00 IRadAn=         4 IDoV= 1 UseB2=F ITyADJ=14
 ICtDFT=  3500011 ScaDFX=  1.000000  1.000000  1.000000  1.000000
 FoFCou: FMM=F IPFlag=           0 FMFlag=      100000 FMFlg1=           0
         NFxFlg=           0 DoJE=T BraDBF=F KetDBF=T FulRan=T
         wScrn=  0.000000 ICntrl=     500 IOpCl=  0 I1Cent=   200000004 NGrid=           0
         NMat0=    1 NMatS0=      1 NMatT0=    0 NMatD0=    1 NMtDS0=    0 NMtDT0=    0
 Petite list used in FoFCou.
 Harris En= -455.848041745991    
 JPrj=0 DoOrth=F DoCkMO=F.
 Leave Link  401 at Wed Sep  3 14:24:32 2025, MaxMem=  8053063680 cpu:         3.3
 (Enter /nexus/posix0/bmm/home/sucerqdl/sw/g09/l502.exe)
 Closed shell SCF:
 Using DIIS extrapolation, IDIIS=  1040.
 Integral symmetry usage will be decided dynamically.
 Keep R1 ints in memory in canonical form, NReq=46076400.
 IVT=       78102 IEndB=       78102 NGot=  8053063680 MDV=  8008301248
 LenX=  8008301248 LenY=  8008282038
 Requested convergence on RMS density matrix=1.00D-08 within 128 cycles.
 Requested convergence on MAX density matrix=1.00D-06.
 Requested convergence on             energy=1.00D-06.
 No special actions if energy rises.
 FoFCou: FMM=F IPFlag=           0 FMFlag=           0 FMFlg1=           0
         NFxFlg=           0 DoJE=F BraDBF=F KetDBF=F FulRan=T
         wScrn=  0.000000 ICntrl=     600 IOpCl=  0 I1Cent=           0 NGrid=           0
         NMat0=    1 NMatS0=   9453 NMatT0=    0 NMatD0=    1 NMtDS0=    0 NMtDT0=    0
 Symmetry not used in FoFCou.

 Cycle   1  Pass 1  IDiag  1:
 E= -455.748337386220    
 DIIS: error= 4.01D-02 at cycle   1 NSaved=   1.
 NSaved= 1 IEnMin= 1 EnMin= -455.748337386220     IErMin= 1 ErrMin= 4.01D-02
 ErrMax= 4.01D-02  0.00D+00 EMaxC= 1.00D-01 BMatC= 2.74D-01 BMatP= 2.74D-01
 IDIUse=3 WtCom= 5.99D-01 WtEn= 4.01D-01
 Coeff-Com:  0.100D+01
 Coeff-En:   0.100D+01
 Coeff:      0.100D+01
 Gap=     0.296 Goal=   None    Shift=    0.000
 GapD=    0.296 DampG=1.000 DampE=0.500 DampFc=0.5000 IDamp=-1.
 Damping current iteration by 5.00D-01
 RMSDP=2.00D-02 MaxDP=8.08D-01              OVMax= 2.75D-01

 Cycle   2  Pass 1  IDiag  1:
 E= -455.792215705453     Delta-E=       -0.043878319233 Rises=F Damp=T
 DIIS: error= 2.25D-02 at cycle   2 NSaved=   2.
 NSaved= 2 IEnMin= 2 EnMin= -455.792215705453     IErMin= 2 ErrMin= 2.25D-02
 ErrMax= 2.25D-02  0.00D+00 EMaxC= 1.00D-01 BMatC= 5.55D-02 BMatP= 2.74D-01
 IDIUse=3 WtCom= 7.75D-01 WtEn= 2.25D-01
 Coeff-Com:  0.276D+00 0.724D+00
 Coeff-En:   0.414D+00 0.586D+00
 Coeff:      0.307D+00 0.693D+00
 Gap=     0.297 Goal=   None    Shift=    0.000
 RMSDP=8.38D-03 MaxDP=4.52D-01 DE=-4.39D-02 OVMax= 1.64D-01

 Cycle   3  Pass 1  IDiag  1:
 E= -455.976872834981     Delta-E=       -0.184657129528 Rises=F Damp=F
 DIIS: error= 1.22D-02 at cycle   3 NSaved=   3.
 NSaved= 3 IEnMin= 3 EnMin= -455.976872834981     IErMin= 3 ErrMin= 1.22D-02
 ErrMax= 1.22D-02  0.00D+00 EMaxC= 1.00D-01 BMatC= 1.51D-02 BMatP= 5.55D-02
 IDIUse=3 WtCom= 8.78D-01 WtEn= 1.22D-01
 Coeff-Com:  0.119D+00 0.349D+00 0.532D+00
 Coeff-En:   0.000D+00 0.000D+00 0.100D+01
 Coeff:      0.104D+00 0.306D+00 0.590D+00
 Gap=     0.289 Goal=   None    Shift=    0.000
 RMSDP=1.33D-03 MaxDP=2.65D-02 DE=-1.85D-01 OVMax= 4.16D-02

 Cycle   4  Pass 1  IDiag  1:
 E= -455.989335979953     Delta-E=       -0.012463144972 Rises=F Damp=F
 DIIS: error= 4.62D-03 at cycle   4 NSaved=   4.
 NSaved= 4 IEnMin= 4 EnMin= -455.989335979953     IErMin= 4 ErrMin= 4.62D-03
 ErrMax= 4.62D-03  0.00D+00 EMaxC= 1.00D-01 BMatC= 2.68D-03 BMatP= 1.51D-02
 IDIUse=3 WtCom= 9.54D-01 WtEn= 4.62D-02
 Coeff-Com:  0.264D-01 0.497D-01 0.301D+00 0.623D+00
 Coeff-En:   0.000D+00 0.000D+00 0.103D+00 0.897D+00
 Coeff:      0.251D-01 0.474D-01 0.291D+00 0.636D+00
 Gap=     0.282 Goal=   None    Shift=    0.000
 RMSDP=5.42D-04 MaxDP=1.45D-02 DE=-1.25D-02 OVMax= 1.24D-02

 Cycle   5  Pass 1  IDiag  1:
 E= -455.991512548577     Delta-E=       -0.002176568624 Rises=F Damp=F
 DIIS: error= 1.24D-03 at cycle   5 NSaved=   5.
 NSaved= 5 IEnMin= 5 EnMin= -455.991512548577     IErMin= 5 ErrMin= 1.24D-03
 ErrMax= 1.24D-03  0.00D+00 EMaxC= 1.00D-01 BMatC= 1.94D-04 BMatP= 2.68D-03
 IDIUse=3 WtCom= 9.88D-01 WtEn= 1.24D-02
 Coeff-Com:  0.328D-02-0.149D-01 0.869D-01 0.310D+00 0.615D+00
 Coeff-En:   0.000D+00 0.000D+00 0.000D+00 0.000D+00 0.100D+01
 Coeff:      0.324D-02-0.147D-01 0.858D-01 0.306D+00 0.620D+00
 Gap=     0.282 Goal=   None    Shift=    0.000
 RMSDP=2.07D-04 MaxDP=9.76D-03 DE=-2.18D-03 OVMax= 3.83D-03

 Cycle   6  Pass 1  IDiag  1:
 E= -455.991702790453     Delta-E=       -0.000190241876 Rises=F Damp=F
 DIIS: error= 3.23D-04 at cycle   6 NSaved=   6.
 NSaved= 6 IEnMin= 6 EnMin= -455.991702790453     IErMin= 6 ErrMin= 3.23D-04
 ErrMax= 3.23D-04  0.00D+00 EMaxC= 1.00D-01 BMatC= 1.29D-05 BMatP= 1.94D-04
 IDIUse=3 WtCom= 9.97D-01 WtEn= 3.23D-03
 Coeff-Com:  0.163D-02-0.105D-01 0.290D-01 0.105D+00 0.281D+00 0.593D+00
 Coeff-En:   0.000D+00 0.000D+00 0.000D+00 0.000D+00 0.000D+00 0.100D+01
 Coeff:      0.162D-02-0.104D-01 0.289D-01 0.105D+00 0.281D+00 0.594D+00
 Gap=     0.282 Goal=   None    Shift=    0.000
 RMSDP=6.18D-05 MaxDP=2.73D-03 DE=-1.90D-04 OVMax= 7.15D-04

 Cycle   7  Pass 1  IDiag  1:
 E= -455.991713714718     Delta-E=       -0.000010924265 Rises=F Damp=F
 DIIS: error= 1.06D-04 at cycle   7 NSaved=   7.
 NSaved= 7 IEnMin= 7 EnMin= -455.991713714718     IErMin= 7 ErrMin= 1.06D-04
 ErrMax= 1.06D-04  0.00D+00 EMaxC= 1.00D-01 BMatC= 1.85D-06 BMatP= 1.29D-05
 IDIUse=3 WtCom= 9.99D-01 WtEn= 1.06D-03
 Coeff-Com:  0.831D-03-0.223D-02-0.398D-02-0.230D-01-0.276D-02 0.238D+00
 Coeff-Com:  0.793D+00
 Coeff-En:   0.000D+00 0.000D+00 0.000D+00 0.000D+00 0.000D+00 0.000D+00
 Coeff-En:   0.100D+01
 Coeff:      0.830D-03-0.223D-02-0.397D-02-0.230D-01-0.275D-02 0.238D+00
 Coeff:      0.793D+00
 Gap=     0.282 Goal=   None    Shift=    0.000
 RMSDP=3.10D-05 MaxDP=9.48D-04 DE=-1.09D-05 OVMax= 5.76D-04

 Cycle   8  Pass 1  IDiag  1:
 E= -455.991715364467     Delta-E=       -0.000001649749 Rises=F Damp=F
 DIIS: error= 6.51D-05 at cycle   8 NSaved=   8.
 NSaved= 8 IEnMin= 8 EnMin= -455.991715364467     IErMin= 8 ErrMin= 6.51D-05
 ErrMax= 6.51D-05  0.00D+00 EMaxC= 1.00D-01 BMatC= 2.86D-07 BMatP= 1.85D-06
 IDIUse=1 WtCom= 1.00D+00 WtEn= 0.00D+00
 Coeff-Com:  0.385D-03-0.497D-03-0.475D-02-0.232D-01-0.270D-01 0.774D-01
 Coeff-Com:  0.466D+00 0.511D+00
 Coeff:      0.385D-03-0.497D-03-0.475D-02-0.232D-01-0.270D-01 0.774D-01
 Coeff:      0.466D+00 0.511D+00
 Gap=     0.282 Goal=   None    Shift=    0.000
 RMSDP=1.22D-05 MaxDP=4.41D-04 DE=-1.65D-06 OVMax= 1.99D-04

 Cycle   9  Pass 1  IDiag  1:
 E= -455.991715595575     Delta-E=       -0.000000231108 Rises=F Damp=F
 DIIS: error= 1.88D-05 at cycle   9 NSaved=   9.
 NSaved= 9 IEnMin= 9 EnMin= -455.991715595575     IErMin= 9 ErrMin= 1.88D-05
 ErrMax= 1.88D-05  0.00D+00 EMaxC= 1.00D-01 BMatC= 3.22D-08 BMatP= 2.86D-07
 IDIUse=1 WtCom= 1.00D+00 WtEn= 0.00D+00
 Coeff-Com:  0.720D-05 0.195D-03-0.113D-02-0.553D-02-0.116D-01-0.238D-01
 Coeff-Com:  0.509D-01 0.270D+00 0.721D+00
 Coeff:      0.720D-05 0.195D-03-0.113D-02-0.553D-02-0.116D-01-0.238D-01
 Coeff:      0.509D-01 0.270D+00 0.721D+00
 Gap=     0.282 Goal=   None    Shift=    0.000
 RMSDP=2.56D-06 MaxDP=5.40D-05 DE=-2.31D-07 OVMax= 7.69D-05

 Cycle  10  Pass 1  IDiag  1:
 E= -455.991715625718     Delta-E=       -0.000000030143 Rises=F Damp=F
 DIIS: error= 5.24D-06 at cycle  10 NSaved=  10.
 NSaved=10 IEnMin=10 EnMin= -455.991715625718     IErMin=10 ErrMin= 5.24D-06
 ErrMax= 5.24D-06  0.00D+00 EMaxC= 1.00D-01 BMatC= 4.03D-09 BMatP= 3.22D-08
 IDIUse=1 WtCom= 1.00D+00 WtEn= 0.00D+00
 Coeff-Com: -0.305D-04 0.154D-03-0.121D-03-0.778D-03-0.363D-02-0.204D-01
 Coeff-Com: -0.137D-01 0.944D-01 0.393D+00 0.551D+00
 Coeff:     -0.305D-04 0.154D-03-0.121D-03-0.778D-03-0.363D-02-0.204D-01
 Coeff:     -0.137D-01 0.944D-01 0.393D+00 0.551D+00
 Gap=     0.282 Goal=   None    Shift=    0.000
 RMSDP=1.01D-06 MaxDP=3.74D-05 DE=-3.01D-08 OVMax= 1.40D-05

 Cycle  11  Pass 1  IDiag  1:
 E= -455.991715630071     Delta-E=       -0.000000004353 Rises=F Damp=F
 DIIS: error= 6.53D-07 at cycle  11 NSaved=  11.
 NSaved=11 IEnMin=11 EnMin= -455.991715630071     IErMin=11 ErrMin= 6.53D-07
 ErrMax= 6.53D-07  0.00D+00 EMaxC= 1.00D-01 BMatC= 8.00D-11 BMatP= 4.03D-09
 IDIUse=1 WtCom= 1.00D+00 WtEn= 0.00D+00
 Coeff-Com: -0.858D-05 0.181D-04 0.801D-04 0.298D-03 0.331D-03-0.182D-02
 Coeff-Com: -0.679D-02-0.103D-01 0.125D-01 0.105D+00 0.901D+00
 Coeff:     -0.858D-05 0.181D-04 0.801D-04 0.298D-03 0.331D-03-0.182D-02
 Coeff:     -0.679D-02-0.103D-01 0.125D-01 0.105D+00 0.901D+00
 Gap=     0.282 Goal=   None    Shift=    0.000
 RMSDP=2.60D-07 MaxDP=7.98D-06 DE=-4.35D-09 OVMax= 5.61D-06

 Cycle  12  Pass 1  IDiag  1:
 E= -455.991715630180     Delta-E=       -0.000000000109 Rises=F Damp=F
 DIIS: error= 3.08D-07 at cycle  12 NSaved=  12.
 NSaved=12 IEnMin=12 EnMin= -455.991715630180     IErMin=12 ErrMin= 3.08D-07
 ErrMax= 3.08D-07  0.00D+00 EMaxC= 1.00D-01 BMatC= 1.98D-11 BMatP= 8.00D-11
 IDIUse=1 WtCom= 1.00D+00 WtEn= 0.00D+00
 Coeff-Com: -0.304D-05 0.267D-05 0.457D-04 0.175D-03 0.336D-03 0.131D-03
 Coeff-Com: -0.292D-02-0.965D-02-0.149D-01 0.257D-01 0.450D+00 0.551D+00
 Coeff:     -0.304D-05 0.267D-05 0.457D-04 0.175D-03 0.336D-03 0.131D-03
 Coeff:     -0.292D-02-0.965D-02-0.149D-01 0.257D-01 0.450D+00 0.551D+00
 Gap=     0.282 Goal=   None    Shift=    0.000
 RMSDP=4.79D-08 MaxDP=8.58D-07 DE=-1.09D-10 OVMax= 9.14D-07

 Cycle  13  Pass 1  IDiag  1:
 E= -455.991715630197     Delta-E=       -0.000000000017 Rises=F Damp=F
 DIIS: error= 7.60D-08 at cycle  13 NSaved=  13.
 NSaved=13 IEnMin=13 EnMin= -455.991715630197     IErMin=13 ErrMin= 7.60D-08
 ErrMax= 7.60D-08  0.00D+00 EMaxC= 1.00D-01 BMatC= 1.45D-12 BMatP= 1.98D-11
 IDIUse=1 WtCom= 1.00D+00 WtEn= 0.00D+00
 Coeff-Com:  0.876D-07-0.147D-05 0.809D-05 0.248D-04 0.918D-04 0.348D-03
 Coeff-Com: -0.243D-03-0.192D-02-0.784D-02-0.467D-02 0.384D-01 0.217D+00
 Coeff-Com:  0.759D+00
 Coeff:      0.876D-07-0.147D-05 0.809D-05 0.248D-04 0.918D-04 0.348D-03
 Coeff:     -0.243D-03-0.192D-02-0.784D-02-0.467D-02 0.384D-01 0.217D+00
 Coeff:      0.759D+00
 Gap=     0.282 Goal=   None    Shift=    0.000
 RMSDP=2.82D-08 MaxDP=1.05D-06 DE=-1.74D-11 OVMax= 4.01D-07

 Cycle  14  Pass 1  IDiag  1:
 E= -455.991715630199     Delta-E=       -0.000000000001 Rises=F Damp=F
 DIIS: error= 1.83D-08 at cycle  14 NSaved=  14.
 NSaved=14 IEnMin=14 EnMin= -455.991715630199     IErMin=14 ErrMin= 1.83D-08
 ErrMax= 1.83D-08  0.00D+00 EMaxC= 1.00D-01 BMatC= 7.12D-14 BMatP= 1.45D-12
 IDIUse=1 WtCom= 1.00D+00 WtEn= 0.00D+00
 Coeff-Com:  0.180D-06-0.643D-06 0.701D-06-0.497D-06 0.159D-04 0.118D-03
 Coeff-Com:  0.565D-04-0.237D-03-0.192D-02-0.302D-02-0.102D-01 0.469D-01
 Coeff-Com:  0.267D+00 0.701D+00
 Coeff:      0.180D-06-0.643D-06 0.701D-06-0.497D-06 0.159D-04 0.118D-03
 Coeff:      0.565D-04-0.237D-03-0.192D-02-0.302D-02-0.102D-01 0.469D-01
 Coeff:      0.267D+00 0.701D+00
 Gap=     0.282 Goal=   None    Shift=    0.000
 RMSDP=5.36D-09 MaxDP=1.61D-07 DE=-1.36D-12 OVMax= 1.02D-07

 SCF Done:  E(RBMK) =  -455.991715630     A.U. after   14 cycles
            NFock= 14  Conv=0.54D-08     -V/T= 2.0091
 KE= 4.518959400548D+02 PE=-1.868737027551D+03 EE= 5.585223763065D+02
 Leave Link  502 at Wed Sep  3 14:24:38 2025, MaxMem=  8053063680 cpu:        81.9
 (Enter /nexus/posix0/bmm/home/sucerqdl/sw/g09/l801.exe)
 DoSCS=F DFT=T ScalE2(SS,OS)=  1.000000  1.000000
 Range of M.O.s used for correlation:     1   137
 NBasis=   137 NAE=    35 NBE=    35 NFC=     0 NFV=     0
 NROrb=    137 NOA=    35 NOB=    35 NVA=   102 NVB=   102

 **** Warning!!: The largest alpha MO coefficient is  0.47720588D+02

 Leave Link  801 at Wed Sep  3 14:24:38 2025, MaxMem=  8053063680 cpu:         0.3
 (Enter /nexus/posix0/bmm/home/sucerqdl/sw/g09/l1101.exe)
 Using compressed storage, NAtomX=    19.
 Will process     20 centers per pass.
 Leave Link 1101 at Wed Sep  3 14:24:38 2025, MaxMem=  8053063680 cpu:         1.5
 (Enter /nexus/posix0/bmm/home/sucerqdl/sw/g09/l1102.exe)
 Symmetrizing basis deriv contribution to polar:
 IMax=3 JMax=2 DiffMx= 0.00D+00
 Leave Link 1102 at Wed Sep  3 14:24:38 2025, MaxMem=  8053063680 cpu:         0.4
 (Enter /nexus/posix0/bmm/home/sucerqdl/sw/g09/l1110.exe)
 Forming Gx(P) for the SCF density, NAtomX=    19.
 Integral derivatives from FoFJK, PRISM(SPDF).
 Do as many integral derivatives as possible in FoFJK.
 G2DrvN: MDV=    8053063424.
 G2DrvN: will do    20 centers at a time, making    1 passes.
 Calling FoFCou, ICntrl=  3107 FMM=F I1Cent=   0 AccDes= 0.00D+00.
 FoFJK:  IHMeth= 1 ICntrl=    3107 DoSepK=F KAlg= 0 I1Cent=   0 FoldK=F
 IRaf=         0 NMat=   1 IRICut=       1 DoRegI=T DoRafI=F ISym2E= 0.
 FoFCou: FMM=F IPFlag=           0 FMFlag=      100000 FMFlg1=           0
         NFxFlg=           0 DoJE=F BraDBF=F KetDBF=F FulRan=T
         wScrn=  0.000000 ICntrl=    3107 IOpCl=  0 I1Cent=           0 NGrid=           0
         NMat0=    1 NMatS0=      1 NMatT0=    0 NMatD0=    1 NMtDS0=    0 NMtDT0=    0
 Symmetry not used in FoFCou.
 End of G2Drv F.D. properties file   721 does not exist.
 End of G2Drv F.D. properties file   722 does not exist.
 End of G2Drv F.D. properties file   788 does not exist.
 Leave Link 1110 at Wed Sep  3 14:24:47 2025, MaxMem=  8053063680 cpu:       130.3
 (Enter /nexus/posix0/bmm/home/sucerqdl/sw/g09/l1002.exe)
 Minotr:  Closed shell wavefunction.
          IDoAtm=1111111111111111111
          Direct CPHF calculation.
          Differentiating once with respect to nuclear coordinates.
          Requested convergence is 1.0D-08 RMS, and 1.0D-07 maximum.
          Secondary convergence is 1.0D-12 RMS, and 1.0D-12 maximum.
          NewPWx=T KeepS1=F KeepF1=F KeepIn=T MapXYZ=F SortEE=F KeepMc=T.
          MDV=    8053063349 using IRadAn=       2.
 Generate precomputed XC quadrature information.
 Keep R1 ints in memory in canonical form, NReq=46004222.
 FoFCou: FMM=F IPFlag=           0 FMFlag=           0 FMFlg1=           0
         NFxFlg=           0 DoJE=F BraDBF=F KetDBF=F FulRan=T
         wScrn=  0.000000 ICntrl=     600 IOpCl=  0 I1Cent=           0 NGrid=           0
         NMat0=    1 NMatS0=   9453 NMatT0=    0 NMatD0=    1 NMtDS0=    0 NMtDT0=    0
 Symmetry not used in FoFCou.
          Solving linear equations simultaneously, MaxMat=       0.
          There are    60 degrees of freedom in the 1st order CPHF.  IDoFFX=6 NUNeed=     0.
     54 vectors produced by pass  0 Test12= 5.95D-15 1.67D-09 XBig12= 1.38D-01 9.25D-02.
 AX will form    54 AO Fock derivatives at one time.
     54 vectors produced by pass  1 Test12= 5.95D-15 1.67D-09 XBig12= 6.43D-03 2.14D-02.
     54 vectors produced by pass  2 Test12= 5.95D-15 1.67D-09 XBig12= 6.26D-05 1.33D-03.
     54 vectors produced by pass  3 Test12= 5.95D-15 1.67D-09 XBig12= 2.40D-07 7.15D-05.
     54 vectors produced by pass  4 Test12= 5.95D-15 1.67D-09 XBig12= 6.78D-10 3.87D-06.
     54 vectors produced by pass  5 Test12= 5.95D-15 1.67D-09 XBig12= 1.48D-12 1.46D-07.
     21 vectors produced by pass  6 Test12= 5.95D-15 1.67D-09 XBig12= 3.93D-15 9.11D-09.
      4 vectors produced by pass  7 Test12= 5.95D-15 1.67D-09 XBig12= 1.41D-16 2.43D-09.
 InvSVY:  IOpt=1 It=  1 EMax= 5.00D-16
 Solved reduced A of dimension   349 with    60 vectors.
 End of Minotr F.D. properties file   721 does not exist.
 End of Minotr F.D. properties file   722 does not exist.
 End of Minotr F.D. properties file   788 does not exist.
 Leave Link 1002 at Wed Sep  3 14:24:54 2025, MaxMem=  8053063680 cpu:       123.7
 (Enter /nexus/posix0/bmm/home/sucerqdl/sw/g09/l601.exe)
 Copying SCF densities to generalized density rwf, IOpCl= 0 IROHF=0.

 **********************************************************************

            Population analysis using the SCF density.

 **********************************************************************

 Orbital symmetries:
       Occupied  (A) (A) (A) (A) (A) (A) (A) (A) (A) (A) (A) (A)
                 (A) (A) (A) (A) (A) (A) (A) (A) (A) (A) (A) (A)
                 (A) (A) (A) (A) (A) (A) (A) (A) (A) (A) (A)
       Virtual   (A) (A) (A) (A) (A) (A) (A) (A) (A) (A) (A) (A)
                 (A) (A) (A) (A) (A) (A) (A) (A) (A) (A) (A) (A)
                 (A) (A) (A) (A) (A) (A) (A) (A) (A) (A) (A) (A)
                 (A) (A) (A) (A) (A) (A) (A) (A) (A) (A) (A) (A)
                 (A) (A) (A) (A) (A) (A) (A) (A) (A) (A) (A) (A)
                 (A) (A) (A) (A) (A) (A) (A) (A) (A) (A) (A) (A)
                 (A) (A) (A) (A) (A) (A) (A) (A) (A) (A) (A) (A)
                 (A) (A) (A) (A) (A) (A) (A) (A) (A) (A) (A) (A)
                 (A) (A) (A) (A) (A) (A)
 The electronic state is 1-A.
 Alpha  occ. eigenvalues --  -19.54242 -19.53151 -14.72375 -14.71751 -10.63596
 Alpha  occ. eigenvalues --  -10.62334 -10.55558 -10.55175 -10.51351  -1.15024
 Alpha  occ. eigenvalues --   -1.14031  -0.96291  -0.95634  -0.79952  -0.77662
 Alpha  occ. eigenvalues --   -0.76330  -0.62823  -0.62100  -0.55967  -0.51410
 Alpha  occ. eigenvalues --   -0.51243  -0.50192  -0.50066  -0.48542  -0.47941
 Alpha  occ. eigenvalues --   -0.47648  -0.46543  -0.44205  -0.43701  -0.41960
 Alpha  occ. eigenvalues --   -0.41895  -0.30894  -0.30364  -0.29192  -0.28820
 Alpha virt. eigenvalues --   -0.00579   0.02810   0.03164   0.03524   0.03794
 Alpha virt. eigenvalues --    0.06444   0.06752   0.07294   0.07721   0.08101
 Alpha virt. eigenvalues --    0.09226   0.09800   0.10298   0.10881   0.11592
 Alpha virt. eigenvalues --    0.11965   0.12793   0.13771   0.14942   0.15768
 Alpha virt. eigenvalues --    0.16083   0.16243   0.17806   0.18296   0.20327
 Alpha virt. eigenvalues --    0.20993   0.21709   0.22472   0.22806   0.23586
 Alpha virt. eigenvalues --    0.23620   0.24915   0.26694   0.27310   0.27384
 Alpha virt. eigenvalues --    0.27489   0.29016   0.29547   0.30893   0.31562
 Alpha virt. eigenvalues --    0.32241   0.33099   0.33345   0.34846   0.36131
 Alpha virt. eigenvalues --    0.36169   0.36331   0.37775   0.39512   0.40710
 Alpha virt. eigenvalues --    0.42035   0.44234   0.46088   0.46301   0.51801
 Alpha virt. eigenvalues --    0.55274   0.65907   0.67519   0.69588   0.70231
 Alpha virt. eigenvalues --    0.70465   0.73387   0.77532   0.78805   0.80208
 Alpha virt. eigenvalues --    0.82374   0.84435   0.86541   0.92303   0.93758
 Alpha virt. eigenvalues --    0.99155   1.00361   1.00999   1.01737   1.08917
 Alpha virt. eigenvalues --    1.09996   1.11329   1.12471   1.13400   1.13926
 Alpha virt. eigenvalues --    1.15447   1.17584   1.21960   1.22598   1.24843
 Alpha virt. eigenvalues --    1.28333   1.31313   1.33386   1.35947   1.36017
 Alpha virt. eigenvalues --    1.40218   1.41591   1.44612   1.48072   1.50731
 Alpha virt. eigenvalues --    1.51822   1.54959   1.56071   1.64438   1.80385
 Alpha virt. eigenvalues --    1.97772   2.08175
          Condensed to atoms (all electrons):
               1          2          3          4          5          6
     1  C    5.766876   0.343356   0.393565   0.393566   0.008153  -0.112872
     2  H    0.343356   0.520077  -0.025733  -0.025733  -0.019513   0.005379
     3  H    0.393565  -0.025733   0.469687  -0.023502  -0.038345  -0.001126
     4  H    0.393566  -0.025733  -0.023502   0.469687  -0.038345  -0.001126
     5  C    0.008153  -0.019513  -0.038345  -0.038345   5.375415   0.367224
     6  O   -0.112872   0.005379  -0.001126  -0.001126   0.367224   8.466593
     7  N   -0.117578   0.002941  -0.000023  -0.000023  -0.011793  -0.207780
     8  H    0.007264  -0.000263   0.000000   0.000000   0.020966   0.007547
     9  C   -0.055176   0.000177  -0.002229  -0.002229  -0.510012  -0.034366
    10  H   -0.000950   0.000000   0.000003  -0.000001   0.002665   0.000610
    11  H   -0.000950   0.000000  -0.000001   0.000003   0.002664   0.000610
    12  C    0.022519  -0.000173  -0.000133  -0.000133   0.247315   0.017941
    13  O   -0.000806  -0.000001   0.000000   0.000000   0.004468  -0.000160
    14  N   -0.000284   0.000001   0.000000   0.000000   0.003226  -0.000788
    15  H    0.000043   0.000000   0.000000   0.000000   0.001862   0.000033
    16  C    0.000039   0.000000   0.000000   0.000000   0.001493  -0.000018
    17  H    0.000000   0.000000   0.000000   0.000000   0.000014   0.000000
    18  H    0.000000   0.000000   0.000000   0.000000  -0.000010   0.000000
    19  H    0.000000   0.000000   0.000000   0.000000   0.000014   0.000000
               7          8          9         10         11         12
     1  C   -0.117578   0.007264  -0.055176  -0.000950  -0.000950   0.022519
     2  H    0.002941  -0.000263   0.000177   0.000000   0.000000  -0.000173
     3  H   -0.000023   0.000000  -0.002229   0.000003  -0.000001  -0.000133
     4  H   -0.000023   0.000000  -0.002229  -0.000001   0.000003  -0.000133
     5  C   -0.011793   0.020966  -0.510012   0.002665   0.002664   0.247315
     6  O   -0.207780   0.007547  -0.034366   0.000610   0.000610   0.017941
     7  N    7.513713   0.256560   0.223470  -0.045324  -0.045325  -0.021731
     8  H    0.256560   0.334470  -0.041311   0.001530   0.001530   0.011238
     9  C    0.223470  -0.041311   9.089853   0.337870   0.337870  -2.245659
    10  H   -0.045324   0.001530   0.337870   0.501530  -0.036965  -0.008657
    11  H   -0.045325   0.001530   0.337870  -0.036965   0.501530  -0.008657
    12  C   -0.021731   0.011238  -2.245659  -0.008657  -0.008657   6.776002
    13  O    0.021678   0.001610  -0.010493   0.001419   0.001420   0.258002
    14  N    0.010105   0.001207  -0.543350   0.012283   0.012283   0.437846
    15  H   -0.000122  -0.000001   0.055968  -0.000572  -0.000572  -0.049676
    16  C    0.001985   0.000228  -0.108085   0.001381   0.001381  -0.004402
    17  H   -0.000008   0.000000   0.002982   0.000003  -0.000001  -0.001886
    18  H   -0.000003   0.000000  -0.007197  -0.000001  -0.000001  -0.007878
    19  H   -0.000008   0.000000   0.002982  -0.000001   0.000003  -0.001886
              13         14         15         16         17         18
     1  C   -0.000806  -0.000284   0.000043   0.000039   0.000000   0.000000
     2  H   -0.000001   0.000001   0.000000   0.000000   0.000000   0.000000
     3  H    0.000000   0.000000   0.000000   0.000000   0.000000   0.000000
     4  H    0.000000   0.000000   0.000000   0.000000   0.000000   0.000000
     5  C    0.004468   0.003226   0.001862   0.001493   0.000014  -0.000010
     6  O   -0.000160  -0.000788   0.000033  -0.000018   0.000000   0.000000
     7  N    0.021678   0.010105  -0.000122   0.001985  -0.000008  -0.000003
     8  H    0.001610   0.001207  -0.000001   0.000228   0.000000   0.000000
     9  C   -0.010493  -0.543350   0.055968  -0.108085   0.002982  -0.007197
    10  H    0.001419   0.012283  -0.000572   0.001381   0.000003  -0.000001
    11  H    0.001420   0.012283  -0.000572   0.001381  -0.000001  -0.000001
    12  C    0.258002   0.437846  -0.049676  -0.004402  -0.001886  -0.007878
    13  O    8.449206  -0.197343   0.010670  -0.019333  -0.000093   0.004185
    14  N   -0.197343   7.474401   0.253905   0.184016  -0.034375  -0.031381
    15  H    0.010670   0.253905   0.414154  -0.028217  -0.000499   0.001888
    16  C   -0.019333   0.184016  -0.028217   5.210939   0.379072   0.397608
    17  H   -0.000093  -0.034375  -0.000499   0.379072   0.495410  -0.022918
    18  H    0.004185  -0.031381   0.001888   0.397608  -0.022918   0.447014
    19  H   -0.000093  -0.034375  -0.000499   0.379071  -0.032905  -0.022918
              19
     1  C    0.000000
     2  H    0.000000
     3  H    0.000000
     4  H    0.000000
     5  C    0.000014
     6  O    0.000000
     7  N   -0.000008
     8  H    0.000000
     9  C    0.002982
    10  H   -0.000001
    11  H    0.000003
    12  C   -0.001886
    13  O   -0.000093
    14  N   -0.034375
    15  H   -0.000499
    16  C    0.379071
    17  H   -0.032905
    18  H   -0.022918
    19  H    0.495410
 Mulliken charges:
               1
     1  C   -0.646766
     2  H    0.199485
     3  H    0.227835
     4  H    0.227835
     5  C    0.582539
     6  O   -0.507701
     7  N   -0.580734
     8  H    0.397427
     9  C   -0.491065
    10  H    0.233177
    11  H    0.233177
    12  C    0.580005
    13  O   -0.524337
    14  N   -0.547377
    15  H    0.341636
    16  C   -0.397157
    17  H    0.215204
    18  H    0.241613
    19  H    0.215204
 Sum of Mulliken charges =   0.00000
 Mulliken charges with hydrogens summed into heavy atoms:
               1
     1  C    0.008389
     5  C    0.582539
     6  O   -0.507701
     7  N   -0.183307
     9  C   -0.024711
    12  C    0.580005
    13  O   -0.524337
    14  N   -0.205741
    16  C    0.274864
 APT charges:
               1
     1  C   -1.502132
     2  H    0.421993
     3  H    0.585091
     4  H    0.585091
     5  C    0.374374
     6  O   -0.401237
     7  N   -0.810757
     8  H    0.575905
     9  C   -0.793031
    10  H    0.432881
    11  H    0.432880
    12  C    0.205881
    13  O   -0.481434
    14  N   -0.263264
    15  H    0.499927
    16  C   -1.595857
    17  H    0.633415
    18  H    0.466857
    19  H    0.633418
 Sum of APT charges =   0.00000
 APT charges with hydrogens summed into heavy atoms:
               1
     1  C    0.090042
     5  C    0.374374
     6  O   -0.401237
     7  N   -0.234852
     9  C    0.072730
    12  C    0.205881
    13  O   -0.481434
    14  N    0.236663
    16  C    0.137834
 Electronic spatial extent (au):  <R**2>=           2474.0747
 Charge=              0.0000 electrons
 Dipole moment (field-independent basis, Debye):
    X=              2.7694    Y=             -0.7498    Z=              0.0001  Tot=              2.8691
 Quadrupole moment (field-independent basis, Debye-Ang):
   XX=            -31.7997   YY=            -61.5131   ZZ=            -55.8504
   XY=            -18.8946   XZ=              0.0011   YZ=              0.0005
 Traceless Quadrupole moment (field-independent basis, Debye-Ang):
   XX=             17.9214   YY=            -11.7920   ZZ=             -6.1293
   XY=            -18.8946   XZ=              0.0011   YZ=              0.0005
 Octapole moment (field-independent basis, Debye-Ang**2):
  XXX=             67.8183  YYY=             -1.3218  ZZZ=              0.0004  XYY=              9.5409
  XXY=              8.6916  XXZ=             -0.0008  XZZ=             -0.8125  YZZ=             -2.4808
  YYZ=             -0.0001  XYZ=             -0.0007
 Hexadecapole moment (field-independent basis, Debye-Ang**3):
 XXXX=          -2156.2594 YYYY=           -301.5865 ZZZZ=            -76.0592 XXXY=           -132.8626
 XXXZ=              0.0127 YYYX=            -56.6351 YYYZ=              0.0079 ZZZX=              0.0071
 ZZZY=              0.0068 XXYY=           -560.4761 XXZZ=           -483.5469 YYZZ=            -60.9886
 XXYZ=              0.0055 YYXZ=              0.0074 ZZXY=              4.3234
 N-N= 4.023269955596D+02 E-N=-1.868737026541D+03  KE= 4.518959400548D+02
  Exact polarizability:   0.000   0.000   0.000   0.000   0.000   0.000
 Approx polarizability: 136.818  -6.032 115.989   0.000  -0.003  64.523
 No NMR shielding tensors so no spin-rotation constants.
 Leave Link  601 at Wed Sep  3 14:24:55 2025, MaxMem=  8053063680 cpu:         1.6
 (Enter /nexus/posix0/bmm/home/sucerqdl/sw/g09/l701.exe)
 Compute integral second derivatives.
 ... and contract with generalized density number  0.
 Leave Link  701 at Wed Sep  3 14:24:55 2025, MaxMem=  8053063680 cpu:         1.5
 (Enter /nexus/posix0/bmm/home/sucerqdl/sw/g09/l702.exe)
 L702 exits ... SP integral derivatives will be done elsewhere.
 Leave Link  702 at Wed Sep  3 14:24:55 2025, MaxMem=  8053063680 cpu:         0.3
 (Enter /nexus/posix0/bmm/home/sucerqdl/sw/g09/l703.exe)
 Compute integral second derivatives, UseDBF=F ICtDFT=           0.
 Integral derivatives from FoFJK, PRISM(SPDF).
 Calling FoFJK, ICntrl=    100147 FMM=F ISym2X=0 I1Cent= 0 IOpClX= 0 NMat=1 NMatS=1 NMatT=0.
 FoFJK:  IHMeth= 1 ICntrl=  100147 DoSepK=F KAlg= 0 I1Cent=   0 FoldK=F
 IRaf=         0 NMat=   1 IRICut=       1 DoRegI=T DoRafI=F ISym2E= 0.
 FoFCou: FMM=F IPFlag=           0 FMFlag=      100000 FMFlg1=         800
         NFxFlg=           0 DoJE=F BraDBF=F KetDBF=F FulRan=T
         wScrn=  0.000000 ICntrl=  100147 IOpCl=  0 I1Cent=           0 NGrid=           0
         NMat0=    1 NMatS0=      1 NMatT0=    0 NMatD0=    1 NMtDS0=    0 NMtDT0=    0
 Symmetry not used in FoFCou.
 Leave Link  703 at Wed Sep  3 14:25:01 2025, MaxMem=  8053063680 cpu:        98.3
 (Enter /nexus/posix0/bmm/home/sucerqdl/sw/g09/l716.exe)
 Dipole        = 1.08957071D+00-2.94997081D-01 2.01032995D-05
 Polarizability= 0.00000000D+00 0.00000000D+00 0.00000000D+00
                 0.00000000D+00 0.00000000D+00 0.00000000D+00
 ***** Axes restored to original set *****
 -------------------------------------------------------------------
 Center     Atomic                   Forces (Hartrees/Bohr)
 Number     Number              X              Y              Z
 -------------------------------------------------------------------
      1        6           0.073589654   -0.000056910   -0.000000702
      2        1           0.000976364   -0.000256701    0.000000089
      3        1           0.002603705    0.000301592    0.000748217
      4        1           0.002603508    0.000301192   -0.000747623
      5        6           0.009341693   -0.003428475    0.000000139
      6        8          -0.001606615    0.004954919   -0.000000293
      7        7          -0.001308499   -0.003266689    0.000000240
      8        1          -0.000242931    0.000179209   -0.000000017
      9        6          -0.002372753   -0.001185930    0.000000162
     10        1          -0.000390301    0.000955145   -0.000098306
     11        1          -0.000390262    0.000955102    0.000098173
     12        6           0.005225271    0.002740316   -0.000000308
     13        8           0.000282552   -0.004599209    0.000000378
     14        7          -0.004667354    0.003215354   -0.000000276
     15        1           0.000958626   -0.000239384    0.000000031
     16        6          -0.076763732   -0.000940434   -0.000000032
     17        1          -0.003349208    0.000273581    0.001084435
     18        1          -0.001140576   -0.000176106    0.000000031
     19        1          -0.003349142    0.000273427   -0.001084337
 -------------------------------------------------------------------
 Cartesian Forces:  Max     0.076763732 RMS     0.014258329
 FormGI is forming the generalized inverse of G from B-inverse, IUseBI=4.
 Leave Link  716 at Wed Sep  3 14:25:01 2025, MaxMem=  8053063680 cpu:         0.5
 (Enter /nexus/posix0/bmm/home/sucerqdl/sw/g09/l103.exe)

 GradGradGradGradGradGradGradGradGradGradGradGradGradGradGradGradGradGrad
 Berny optimization.
 Red2BG is reusing G-inverse.
 Internal  Forces:  Max     0.073542927 RMS     0.008909263
 Search for a local minimum.
 Step number   1 out of a maximum of   91
 All quantities printed in internal units (Hartrees-Bohrs-Radians)
 RMS Force = .17516D-02 SwitMx=.10000D-02 MixMth= 1
 Mixed Optimization -- RFO/linear search
 Second derivative matrix not updated -- analytic derivatives used.
 ITU=  0
     Eigenvalues ---    0.00038   0.00053   0.00167   0.00349   0.00670
     Eigenvalues ---    0.00693   0.00855   0.02037   0.02845   0.03828
     Eigenvalues ---    0.04535   0.05048   0.05349   0.05691   0.06122
     Eigenvalues ---    0.06195   0.06383   0.06408   0.09966   0.10749
     Eigenvalues ---    0.10861   0.11488   0.11570   0.12387   0.12570
     Eigenvalues ---    0.13738   0.13796   0.14902   0.15047   0.16391
     Eigenvalues ---    0.18389   0.18761   0.19555   0.22071   0.24961
     Eigenvalues ---    0.29582   0.32052   0.34641   0.35303   0.36196
     Eigenvalues ---    0.36430   0.36697   0.36736   0.36895   0.37117
     Eigenvalues ---    0.47612   0.48751   0.63326   0.76213   0.78300
     Eigenvalues --- 1000.000001000.000001000.000001000.000001000.00000
     Eigenvalues --- 1000.000001000.000001000.000001000.000001000.00000
     Eigenvalues --- 1000.000001000.000001000.000001000.000001000.00000
     Eigenvalues --- 1000.000001000.000001000.000001000.000001000.00000
     Eigenvalues --- 1000.000001000.000001000.000001000.000001000.00000
     Eigenvalues --- 1000.000001000.000001000.000001000.000001000.00000
     Eigenvalues --- 1000.00000
 RFO step:  Lambda=-3.12983350D-03 EMin= 3.82669545D-04
 Linear search not attempted -- first point.
 Maximum step size (   0.300) exceeded in Quadratic search.
    -- Step size scaled by   0.722
 Iteration  1 RMS(Cart)=  0.04265780 RMS(Int)=  0.00515575
 Iteration  2 RMS(Cart)=  0.00786088 RMS(Int)=  0.00041877
 Iteration  3 RMS(Cart)=  0.00000960 RMS(Int)=  0.00041871
 Iteration  4 RMS(Cart)=  0.00000002 RMS(Int)=  0.00041871
 Iteration  1 RMS(Cart)=  0.00001523 RMS(Int)=  0.00000352
 Iteration  2 RMS(Cart)=  0.00000192 RMS(Int)=  0.00000370
 Iteration  3 RMS(Cart)=  0.00000024 RMS(Int)=  0.00000375
 ITry= 1 IFail=0 DXMaxC= 1.51D-01 DCOld= 1.00D+10 DXMaxT= 3.00D-01 DXLimC= 3.00D+00 Rises=F
 Variable       Old X    -DE/DX   Delta X   Delta X   Delta X     New X
                                 (Linear)    (Quad)   (Total)
    R1        2.06297  -0.00039   0.00000  -0.00382  -0.00382   2.05915
    R2        2.06397  -0.00157   0.00000  -0.00612  -0.00612   2.05784
    R3        2.06396  -0.00157   0.00000  -0.00612  -0.00612   2.05784
    R4        3.65954  -0.00593   0.00000   0.24908   0.24898   3.90852
    R5       17.16948  -0.07354   0.00000   0.00000   0.00000  17.16948
    R6        2.33540  -0.00501   0.00000  -0.00850  -0.00850   2.32691
    R7        2.79557  -0.01308   0.00000  -0.03592  -0.03601   2.75956
    R8        1.91313   0.00018   0.00000  -0.00044  -0.00044   1.91268
    R9        3.05487  -0.01170   0.00000  -0.04173  -0.04182   3.01306
   R10        2.07297  -0.00049   0.00000   0.00032   0.00032   2.07329
   R11        2.07297  -0.00049   0.00000   0.00032   0.00032   2.07329
   R12        3.28501  -0.00776   0.00000  -0.05469  -0.05478   3.23023
   R13        2.32780  -0.00461   0.00000   0.00080   0.00080   2.32859
   R14        2.77679  -0.01402   0.00000  -0.03972  -0.03980   2.73699
   R15        1.91768   0.00013   0.00000  -0.00067  -0.00067   1.91701
   R16        3.26975  -0.01092   0.00000  -0.07415  -0.07425   3.19550
   R17        2.06620  -0.00224   0.00000  -0.00394  -0.00394   2.06226
   R18        2.06161  -0.00025   0.00000   0.00025   0.00025   2.06186
   R19        2.06620  -0.00224   0.00000  -0.00394  -0.00394   2.06226
    A1        1.99040   0.00168   0.00000   0.03231   0.03133   2.02173
    A2        1.99040   0.00168   0.00000   0.03231   0.03133   2.02173
    A3        1.97701  -0.00056   0.00000  -0.00752  -0.00821   1.96880
    A4        1.97373   0.00204   0.00000   0.03339   0.03076   2.00449
    A5        1.75203  -0.00307   0.00000  -0.05739  -0.05838   1.69365
    A6        1.75203  -0.00307   0.00000  -0.05740  -0.05838   1.69364
    A7        1.87708   0.00038   0.00000  -0.04712  -0.04708   1.83000
    A8        2.36679  -0.00405   0.00000   0.02726   0.02719   2.39399
    A9        2.03931   0.00367   0.00000   0.01986   0.01989   2.05920
   A10        2.08709   0.00212   0.00000   0.00004   0.00006   2.08715
   A11        2.17638  -0.00472   0.00000  -0.00838  -0.00840   2.16798
   A12        2.01971   0.00259   0.00000   0.00833   0.00835   2.02806
   A13        1.84719   0.00088   0.00000   0.00379   0.00381   1.85100
   A14        1.84719   0.00088   0.00000   0.00379   0.00381   1.85100
   A15        2.16452  -0.00449   0.00000  -0.01771  -0.01778   2.14674
   A16        1.88549   0.00021   0.00000  -0.00001  -0.00004   1.88544
   A17        1.85317   0.00146   0.00000   0.00577   0.00578   1.85895
   A18        1.85317   0.00146   0.00000   0.00577   0.00578   1.85895
   A19        2.05278   0.00337   0.00000   0.01024   0.01026   2.06304
   A20        2.10285  -0.00650   0.00000  -0.01725  -0.01729   2.08556
   A21        2.12756   0.00312   0.00000   0.00701   0.00703   2.13459
   A22        1.97831   0.00226   0.00000   0.01013   0.01016   1.98847
   A23        2.40626  -0.00264   0.00000  -0.01639  -0.01644   2.38982
   A24        1.89861   0.00038   0.00000   0.00625   0.00628   1.90489
   A25        1.84128  -0.00358   0.00000  -0.00276  -0.00276   1.83852
   A26        1.85116  -0.00071   0.00000   0.00481   0.00482   1.85598
   A27        1.84128  -0.00358   0.00000  -0.00276  -0.00276   1.83852
   A28        1.96639   0.00191   0.00000  -0.00130  -0.00130   1.96509
   A29        1.98268   0.00286   0.00000   0.00325   0.00324   1.98592
   A30        1.96639   0.00191   0.00000  -0.00130  -0.00130   1.96509
    D1        3.14159   0.00000   0.00000  -0.00001  -0.00001   3.14158
    D2        0.00000   0.00000   0.00000  -0.00001  -0.00001  -0.00001
    D3       -1.01257  -0.00018   0.00000  -0.00083  -0.00169  -1.01425
    D4        2.12903  -0.00018   0.00000  -0.00083  -0.00169   2.12734
    D5        1.01256   0.00018   0.00000   0.00082   0.00167   1.01423
    D6       -2.12903   0.00018   0.00000   0.00082   0.00168  -2.12736
    D7        0.00000   0.00000   0.00000   0.00000   0.00000  -0.00001
    D8        3.14159   0.00000   0.00000   0.00000   0.00000   3.14159
    D9        3.14159   0.00000   0.00000   0.00000   0.00000   3.14159
   D10        0.00000   0.00000   0.00000   0.00000   0.00000   0.00000
   D11        0.99931   0.00051   0.00000   0.00166   0.00167   1.00098
   D12       -0.99931  -0.00051   0.00000  -0.00167  -0.00167  -1.00098
   D13        3.14159   0.00000   0.00000   0.00000   0.00000   3.14159
   D14       -2.14228   0.00051   0.00000   0.00166   0.00167  -2.14061
   D15        2.14229  -0.00051   0.00000  -0.00167  -0.00167   2.14062
   D16        0.00000   0.00000   0.00000   0.00000   0.00000   0.00000
   D17       -0.00001   0.00000   0.00000   0.00000   0.00000  -0.00001
   D18        3.14159   0.00000   0.00000   0.00000   0.00000   3.14159
   D19        2.13960  -0.00078   0.00000  -0.00261  -0.00264   2.13697
   D20       -1.00199  -0.00078   0.00000  -0.00262  -0.00264  -1.00462
   D21       -2.13962   0.00078   0.00000   0.00261   0.00263  -2.13698
   D22        1.00198   0.00078   0.00000   0.00261   0.00263   1.00461
   D23        0.00000   0.00000   0.00000   0.00000   0.00000   0.00000
   D24        3.14159   0.00000   0.00000   0.00000   0.00000   3.14159
   D25        3.14159   0.00000   0.00000   0.00000   0.00000   3.14159
   D26        0.00000   0.00000   0.00000   0.00000   0.00000   0.00000
   D27       -2.08974  -0.00010   0.00000   0.00052   0.00052  -2.08922
   D28        0.00003   0.00000   0.00000   0.00000   0.00000   0.00003
   D29        2.08979   0.00010   0.00000  -0.00052  -0.00052   2.08927
   D30        1.05185  -0.00010   0.00000   0.00052   0.00052   1.05237
   D31       -3.14157   0.00000   0.00000   0.00000   0.00000  -3.14157
   D32       -1.05180   0.00010   0.00000  -0.00052  -0.00052  -1.05232
         Item               Value     Threshold  Converged?
 Maximum Force            0.005013     0.000450     NO 
 RMS     Force            0.001752     0.000300     NO 
 Maximum Displacement     0.151053     0.001800     NO 
 RMS     Displacement     0.046679     0.001200     NO 
 Predicted change in Energy=-1.591344D-03
 Lowest energy point so far.  Saving SCF results.
 GradGradGradGradGradGradGradGradGradGradGradGradGradGradGradGradGradGrad

 Leave Link  103 at Wed Sep  3 14:25:01 2025, MaxMem=  8053063680 cpu:         0.9
 (Enter /nexus/posix0/bmm/home/sucerqdl/sw/g09/l202.exe)
                          Input orientation:                          
 ---------------------------------------------------------------------
 Center     Atomic      Atomic             Coordinates (Angstroms)
 Number     Number       Type             X           Y           Z
 ---------------------------------------------------------------------
      1          6           0       -0.059713    0.007844    0.000000
      2          1           0       -0.228025    1.084424   -0.000053
      3          1           0       -0.326569   -0.514263   -0.917624
      4          1           0       -0.326564   -0.514172    0.917676
      5          6           0        1.947861   -0.489667    0.000027
      6          8           0        1.967902   -1.720849    0.000100
      7          7           0        3.226103    0.216427   -0.000016
      8          1           0        3.237916    1.228507   -0.000081
      9          6           0        4.648423   -0.504161    0.000029
     10          1           0        4.662025   -1.148739   -0.887693
     11          1           0        4.662025   -1.148628    0.887831
     12          6           0        6.126795    0.353945   -0.000027
     13          8           0        6.085317    1.585485   -0.000114
     14          7           0        7.376352   -0.378400    0.000027
     15          1           0        7.262520   -1.386431    0.000101
     16          6           0        9.025972   -0.006665    0.000001
     17          1           0        9.422242   -0.451996   -0.914103
     18          1           0        9.095250    1.082224   -0.000051
     19          1           0        9.422247   -0.451909    0.914143
 ---------------------------------------------------------------------
                    Distance matrix (angstroms):
                    1          2          3          4          5
     1  C    0.000000
     2  H    1.089657   0.000000
     3  H    1.088964   1.845927   0.000000
     4  H    1.088963   1.845927   1.835301   0.000000
     5  C    2.068301   2.685562   2.452696   2.452690   0.000000
     6  O    2.664508   3.562535   2.750030   2.750017   1.231345
     7  N    3.292429   3.561519   3.741308   3.741306   1.460298
     8  H    3.516301   3.468935   4.072430   4.072435   2.148573
     9  C    4.735894   5.128679   5.058926   5.058920   2.700601
    10  H    4.941709   5.448625   5.028869   5.343038   2.930718
    11  H    4.941708   5.448619   5.343047   5.028861   2.930719
    12  C    6.196181   6.396666   6.575840   6.575838   4.263235
    13  O    6.344316   6.333195   6.809041   6.809047   4.628693
    14  N    7.446089   7.743798   7.758578   7.758572   5.429632
    15  H    7.453798   7.887547   7.693969   7.693957   5.389786
    16  C    9.085697   9.318098   9.411148   9.411144   7.094572
    17  H    9.537007   9.814465   9.749010   9.919601   7.530167
    18  H    9.217789   9.323276   9.600072   9.600067   7.318198
    19  H    9.537011   9.814470   9.919610   9.749010   7.530171
                    6          7          8          9         10
     6  O    0.000000
     7  N    2.310001   0.000000
     8  H    3.211174   1.012149   0.000000
     9  C    2.943726   1.594441   2.234204   0.000000
    10  H    2.893749   2.171064   2.909852   1.097140   0.000000
    11  H    2.893752   2.171064   2.909853   1.097140   1.775524
    12  C    4.647705   2.903950   3.018357   1.709365   2.278500
    13  O    5.280620   3.170083   2.869691   2.535998   3.207731
    14  N    5.572567   4.192659   4.439460   2.730827   2.957878
    15  H    5.305169   4.343020   4.799515   2.758968   2.758125
    16  C    7.263249   5.804159   5.918382   4.405728   4.597431
    17  H    7.616622   6.298768   6.473439   4.860833   4.811009
    18  H    7.658741   5.932664   5.859161   4.721323   5.041686
    19  H    7.616622   6.298775   6.473450   4.860836   5.137305
                   11         12         13         14         15
    11  H    0.000000
    12  C    2.278502   0.000000
    13  O    3.207738   1.232238   0.000000
    14  N    2.957874   1.448352   2.350238   0.000000
    15  H    2.758114   2.078168   3.196576   1.014438   0.000000
    16  C    4.597430   2.921518   3.344009   1.690986   2.239089
    17  H    5.137307   3.513552   4.015193   2.242033   2.524546
    18  H    5.041679   3.056488   3.051716   2.255667   3.074599
    19  H    4.811011   3.513561   4.015214   2.242030   2.524524
                   16         17         18         19
    16  C    0.000000
    17  H    1.091299   0.000000
    18  H    1.091091   1.815557   0.000000
    19  H    1.091299   1.828246   1.815556   0.000000
 Stoichiometry    C5H10N2O2
 Framework group  C1[X(C5H10N2O2)]
 Deg. of freedom    51
 Full point group                 C1      NOp   1
 RotChk:  IX=0 Diff= 3.95D-03
 Largest Abelian subgroup         C1      NOp   1
 Largest concise Abelian subgroup C1      NOp   1
                         Standard orientation:                         
 ---------------------------------------------------------------------
 Center     Atomic      Atomic             Coordinates (Angstroms)
 Number     Number       Type             X           Y           Z
 ---------------------------------------------------------------------
      1          6           0       -4.537754    0.549528   -0.000004
      2          1           0       -4.605417    1.637083   -0.000057
      3          1           0       -4.851917    0.054443   -0.917628
      4          1           0       -4.851904    0.054533    0.917672
      5          6           0       -2.585023   -0.132168    0.000023
      6          8           0       -2.679339   -1.359896    0.000096
      7          7           0       -1.246762    0.452239   -0.000020
      8          1           0       -1.141064    1.458853   -0.000085
      9          6           0        0.102537   -0.397251    0.000025
     10          1           0        0.056254   -1.040309   -0.887698
     11          1           0        0.056264   -1.040199    0.887827
     12          6           0        1.654173    0.319937   -0.000031
     13          8           0        1.727179    1.550010   -0.000118
     14          7           0        2.830364   -0.525224    0.000023
     15          1           0        2.623463   -1.518339    0.000097
     16          6           0        4.507365   -0.308203   -0.000004
     17          1           0        4.860591   -0.788392   -0.914107
     18          1           0        4.677409    0.769556   -0.000055
     19          1           0        4.860604   -0.788306    0.914139
 ---------------------------------------------------------------------
 Rotational constants (GHZ):      5.1221394      0.4801448      0.4428175
 Leave Link  202 at Wed Sep  3 14:25:01 2025, MaxMem=  8053063680 cpu:         0.0
 (Enter /nexus/posix0/bmm/home/sucerqdl/sw/g09/l301.exe)
 Standard basis: 6-31+G (6D, 7F)
 Ernie: Thresh=  0.10000D-02 Tol=  0.10000D-05 Strict=F.
 There are   137 symmetry adapted cartesian basis functions of A   symmetry.
 There are   137 symmetry adapted basis functions of A   symmetry.
   137 basis functions,   274 primitive gaussians,   137 cartesian basis functions
    35 alpha electrons       35 beta electrons
       nuclear repulsion energy       404.5068173864 Hartrees.
 IExCor= 3226 DFT=T Ex+Corr=BMK ExCW=0 ScaHFX=  0.420000
 ScaDFX=  1.000000  1.000000  1.000000  1.000000 ScalE2=  1.000000  1.000000
 IRadAn=      0 IRanWt=     -1 IRanGd=            0 ICorTp=0 IEmpDi=  4
 NAtoms=   19 NActive=   19 NUniq=   19 SFac= 1.00D+00 NAtFMM=   60 NAOKFM=F Big=F
 Integral buffers will be    131072 words long.
 Raffenetti 2 integral format.
 Two-electron integral symmetry is turned on.
 Leave Link  301 at Wed Sep  3 14:25:02 2025, MaxMem=  8053063680 cpu:         0.5
 (Enter /nexus/posix0/bmm/home/sucerqdl/sw/g09/l302.exe)
 NPDir=0 NMtPBC=     1 NCelOv=     1 NCel=       1 NClECP=     1 NCelD=      1
         NCelK=      1 NCelE2=     1 NClLst=     1 CellRange=     0.0.
 One-electron integrals computed using PRISM.
 NBasis=   137 RedAO= T EigKep=  4.79D-05  NBF=   137
 NBsUse=   137 1.00D-06 EigRej= -1.00D+00 NBFU=   137
 Precomputing XC quadrature grid using
 IXCGrd= 4 IRadAn=           0 IRanWt=          -1 IRanGd=           0 AccXCQ= 0.00D+00.
 Generated NRdTot=       0 NPtTot=           0 NUsed=           0 NTot=          32
 NSgBfM=   136   136   136   136   136 MxSgAt=    19 MxSgA2=    19.
 Leave Link  302 at Wed Sep  3 14:25:02 2025, MaxMem=  8053063680 cpu:         1.8
 (Enter /nexus/posix0/bmm/home/sucerqdl/sw/g09/l303.exe)
 DipDrv:  MaxL=1.
 Leave Link  303 at Wed Sep  3 14:25:02 2025, MaxMem=  8053063680 cpu:         0.4
 (Enter /nexus/posix0/bmm/home/sucerqdl/sw/g09/l401.exe)
 Initial guess from the checkpoint file:  "G-stretched09.chk"
 B after Tr=     0.000000    0.000000    0.000000
         Rot=    1.000000    0.000000    0.000000   -0.000828 Ang=   0.09 deg.
 Guess basis will be translated and rotated to current coordinates.
 JPrj=2 DoOrth=T DoCkMO=T.
 Generating alternative initial guess.
 ExpMin= 4.38D-02 ExpMax= 5.48D+03 ExpMxC= 8.25D+02 IAcc=2 IRadAn=         4 AccDes= 0.00D+00
 Harris functional with IExCor= 1009 and IRadAn=       4 diagonalized for initial guess.
 HarFok:  IExCor= 1009 AccDes= 0.00D+00 IRadAn=         4 IDoV= 1 UseB2=F ITyADJ=14
 ICtDFT=  3500011 ScaDFX=  1.000000  1.000000  1.000000  1.000000
 FoFCou: FMM=F IPFlag=           0 FMFlag=      100000 FMFlg1=           0
         NFxFlg=           0 DoJE=T BraDBF=F KetDBF=T FulRan=T
         wScrn=  0.000000 ICntrl=     500 IOpCl=  0 I1Cent=   200000004 NGrid=           0
         NMat0=    1 NMatS0=      1 NMatT0=    0 NMatD0=    1 NMtDS0=    0 NMtDT0=    0
 Petite list used in FoFCou.
 Harris En= -455.849454889986    
 Leave Link  401 at Wed Sep  3 14:25:02 2025, MaxMem=  8053063680 cpu:         3.6
 (Enter /nexus/posix0/bmm/home/sucerqdl/sw/g09/l502.exe)
 Closed shell SCF:
 Using DIIS extrapolation, IDIIS=  1040.
 Integral symmetry usage will be decided dynamically.
 Keep R1 ints in memory in canonical form, NReq=46076400.
 IVT=       78102 IEndB=       78102 NGot=  8053063680 MDV=  8008301248
 LenX=  8008301248 LenY=  8008282038
 Requested convergence on RMS density matrix=1.00D-08 within 128 cycles.
 Requested convergence on MAX density matrix=1.00D-06.
 Requested convergence on             energy=1.00D-06.
 No special actions if energy rises.
 FoFCou: FMM=F IPFlag=           0 FMFlag=           0 FMFlg1=           0
         NFxFlg=           0 DoJE=F BraDBF=F KetDBF=F FulRan=T
         wScrn=  0.000000 ICntrl=     600 IOpCl=  0 I1Cent=           0 NGrid=           0
         NMat0=    1 NMatS0=   9453 NMatT0=    0 NMatD0=    1 NMtDS0=    0 NMtDT0=    0
 Symmetry not used in FoFCou.

 Cycle   1  Pass 1  IDiag  1:
 E= -455.989712727239    
 DIIS: error= 3.07D-03 at cycle   1 NSaved=   1.
 NSaved= 1 IEnMin= 1 EnMin= -455.989712727239     IErMin= 1 ErrMin= 3.07D-03
 ErrMax= 3.07D-03  0.00D+00 EMaxC= 1.00D-01 BMatC= 2.20D-03 BMatP= 2.20D-03
 IDIUse=3 WtCom= 9.69D-01 WtEn= 3.07D-02
 Coeff-Com:  0.100D+01
 Coeff-En:   0.100D+01
 Coeff:      0.100D+01
 Gap=     0.485 Goal=   None    Shift=    0.000
 GapD=    0.485 DampG=2.000 DampE=1.000 DampFc=2.0000 IDamp=-1.
 RMSDP=3.17D-03 MaxDP=1.82D-01              OVMax= 2.15D-02

 Cycle   2  Pass 1  IDiag  1:
 E= -455.993165587576     Delta-E=       -0.003452860337 Rises=F Damp=F
 DIIS: error= 1.03D-03 at cycle   2 NSaved=   2.
 NSaved= 2 IEnMin= 2 EnMin= -455.993165587576     IErMin= 2 ErrMin= 1.03D-03
 ErrMax= 1.03D-03  0.00D+00 EMaxC= 1.00D-01 BMatC= 1.74D-04 BMatP= 2.20D-03
 IDIUse=3 WtCom= 9.90D-01 WtEn= 1.03D-02
 Coeff-Com:  0.426D-01 0.957D+00
 Coeff-En:   0.000D+00 0.100D+01
 Coeff:      0.422D-01 0.958D+00
 Gap=     0.269 Goal=   None    Shift=    0.000
 RMSDP=3.31D-04 MaxDP=6.31D-03 DE=-3.45D-03 OVMax= 7.95D-03

 Cycle   3  Pass 1  IDiag  1:
 E= -455.993147534941     Delta-E=        0.000018052635 Rises=F Damp=F
 DIIS: error= 1.42D-03 at cycle   3 NSaved=   3.
 NSaved= 3 IEnMin= 2 EnMin= -455.993165587576     IErMin= 2 ErrMin= 1.03D-03
 ErrMax= 1.42D-03  0.00D+00 EMaxC= 1.00D-01 BMatC= 2.88D-04 BMatP= 1.74D-04
 IDIUse=3 WtCom= 2.10D-01 WtEn= 7.90D-01
 Coeff-Com: -0.575D-01 0.593D+00 0.465D+00
 Coeff-En:   0.000D+00 0.521D+00 0.479D+00
 Coeff:     -0.121D-01 0.536D+00 0.476D+00
 Gap=     0.268 Goal=   None    Shift=    0.000
 RMSDP=2.20D-04 MaxDP=8.04D-03 DE= 1.81D-05 OVMax= 4.70D-03

 Cycle   4  Pass 1  IDiag  1:
 E= -455.993393540933     Delta-E=       -0.000246005992 Rises=F Damp=F
 DIIS: error= 5.34D-04 at cycle   4 NSaved=   4.
 NSaved= 4 IEnMin= 4 EnMin= -455.993393540933     IErMin= 4 ErrMin= 5.34D-04
 ErrMax= 5.34D-04  0.00D+00 EMaxC= 1.00D-01 BMatC= 1.78D-05 BMatP= 1.74D-04
 IDIUse=3 WtCom= 9.95D-01 WtEn= 5.34D-03
 Coeff-Com: -0.293D-01 0.200D+00 0.265D+00 0.564D+00
 Coeff-En:   0.000D+00 0.000D+00 0.000D+00 0.100D+01
 Coeff:     -0.291D-01 0.199D+00 0.264D+00 0.566D+00
 Gap=     0.268 Goal=   None    Shift=    0.000
 RMSDP=7.26D-05 MaxDP=2.28D-03 DE=-2.46D-04 OVMax= 1.45D-03

 Cycle   5  Pass 1  IDiag  1:
 E= -455.993408238558     Delta-E=       -0.000014697626 Rises=F Damp=F
 DIIS: error= 1.15D-04 at cycle   5 NSaved=   5.
 NSaved= 5 IEnMin= 5 EnMin= -455.993408238558     IErMin= 5 ErrMin= 1.15D-04
 ErrMax= 1.15D-04  0.00D+00 EMaxC= 1.00D-01 BMatC= 2.17D-06 BMatP= 1.78D-05
 IDIUse=3 WtCom= 9.99D-01 WtEn= 1.15D-03
 Coeff-Com: -0.218D-02-0.383D-01 0.343D-01 0.330D+00 0.676D+00
 Coeff-En:   0.000D+00 0.000D+00 0.000D+00 0.000D+00 0.100D+01
 Coeff:     -0.218D-02-0.382D-01 0.343D-01 0.329D+00 0.677D+00
 Gap=     0.268 Goal=   None    Shift=    0.000
 RMSDP=2.55D-05 MaxDP=1.10D-03 DE=-1.47D-05 OVMax= 5.17D-04

 Cycle   6  Pass 1  IDiag  1:
 E= -455.993410091736     Delta-E=       -0.000001853177 Rises=F Damp=F
 DIIS: error= 2.81D-05 at cycle   6 NSaved=   6.
 NSaved= 6 IEnMin= 6 EnMin= -455.993410091736     IErMin= 6 ErrMin= 2.81D-05
 ErrMax= 2.81D-05  0.00D+00 EMaxC= 1.00D-01 BMatC= 1.82D-07 BMatP= 2.17D-06
 IDIUse=1 WtCom= 1.00D+00 WtEn= 0.00D+00
 Coeff-Com:  0.207D-02-0.393D-01-0.128D-01 0.101D+00 0.332D+00 0.616D+00
 Coeff:      0.207D-02-0.393D-01-0.128D-01 0.101D+00 0.332D+00 0.616D+00
 Gap=     0.268 Goal=   None    Shift=    0.000
 RMSDP=8.75D-06 MaxDP=4.09D-04 DE=-1.85D-06 OVMax= 8.82D-05

 Cycle   7  Pass 1  IDiag  1:
 E= -455.993410291670     Delta-E=       -0.000000199935 Rises=F Damp=F
 DIIS: error= 5.26D-06 at cycle   7 NSaved=   7.
 NSaved= 7 IEnMin= 7 EnMin= -455.993410291670     IErMin= 7 ErrMin= 5.26D-06
 ErrMax= 5.26D-06  0.00D+00 EMaxC= 1.00D-01 BMatC= 5.43D-09 BMatP= 1.82D-07
 IDIUse=1 WtCom= 1.00D+00 WtEn= 0.00D+00
 Coeff-Com:  0.505D-03-0.460D-02-0.604D-02-0.271D-03 0.158D-01 0.113D+00
 Coeff-Com:  0.881D+00
 Coeff:      0.505D-03-0.460D-02-0.604D-02-0.271D-03 0.158D-01 0.113D+00
 Coeff:      0.881D+00
 Gap=     0.268 Goal=   None    Shift=    0.000
 RMSDP=1.96D-06 MaxDP=3.27D-05 DE=-2.00D-07 OVMax= 5.89D-05

 Cycle   8  Pass 1  IDiag  1:
 E= -455.993410298334     Delta-E=       -0.000000006664 Rises=F Damp=F
 DIIS: error= 3.03D-06 at cycle   8 NSaved=   8.
 NSaved= 8 IEnMin= 8 EnMin= -455.993410298334     IErMin= 8 ErrMin= 3.03D-06
 ErrMax= 3.03D-06  0.00D+00 EMaxC= 1.00D-01 BMatC= 2.65D-09 BMatP= 5.43D-09
[...]
 ! D29   D(12,14,16,19)        119.4422         -DE/DX =    0.0                 !
 ! D30   D(15,14,16,17)         60.5599         -DE/DX =    0.0                 !
 ! D31   D(15,14,16,18)       -179.9989         -DE/DX =    0.0                 !
 ! D32   D(15,14,16,19)        -60.5579         -DE/DX =    0.0                 !
 --------------------------------------------------------------------------------
 Lowest energy point so far.  Saving SCF results.
 GradGradGradGradGradGradGradGradGradGradGradGradGradGradGradGradGradGrad

 Largest change from initial coordinates is atom   18       0.236 Angstoms.
 Leave Link  103 at Wed Sep  3 14:26:04 2025, MaxMem=  8053063680 cpu:         0.5
 (Enter /nexus/posix0/bmm/home/sucerqdl/sw/g09/l202.exe)
                          Input orientation:                          
 ---------------------------------------------------------------------
 Center     Atomic      Atomic             Coordinates (Angstroms)
 Number     Number       Type             X           Y           Z
 ---------------------------------------------------------------------
      1          6           0       -0.232791    0.062114   -0.000007
      2          1           0       -0.415373    1.133825   -0.000015
      3          1           0       -0.363299   -0.486344   -0.928480
      4          1           0       -0.363300   -0.486331    0.928474
      5          6           0        2.173294   -0.474261    0.000034
      6          8           0        2.122576   -1.698159    0.000128
      7          7           0        3.415064    0.201866   -0.000019
      8          1           0        3.448997    1.212807   -0.000097
      9          6           0        4.757009   -0.548379    0.000034
     10          1           0        4.766806   -1.198862   -0.885743
     11          1           0        4.766804   -1.198742    0.885898
     12          6           0        6.133854    0.308032   -0.000025
     13          8           0        6.094442    1.544065   -0.000116
     14          7           0        7.338230   -0.427224    0.000031
     15          1           0        7.228402   -1.434282    0.000107
     16          6           0        8.852753    0.009416   -0.000002
     17          1           0        9.315665   -0.389516   -0.906235
     18          1           0        8.873275    1.102360   -0.000066
     19          1           0        9.315672   -0.389410    0.906273
 ---------------------------------------------------------------------
                    Distance matrix (angstroms):
                    1          2          3          4          5
     1  C    0.000000
     2  H    1.087153   0.000000
     3  H    1.086232   1.868075   0.000000
     4  H    1.086232   1.868076   1.856954   0.000000
     5  C    2.465146   3.047481   2.701221   2.701195   0.000000
     6  O    2.940461   3.802804   2.917257   2.917179   1.224949
     7  N    3.650531   3.942182   3.951165   3.951170   1.413909
     8  H    3.857416   3.865177   4.275817   4.275853   2.115092
     9  C    5.027007   5.439057   5.204185   5.204172   2.584777
    10  H    5.231688   5.751602   5.179526   5.487902   2.834775
    11  H    5.231685   5.751580   5.487936   5.179509   2.834770
    12  C    6.371392   6.601084   6.611056   6.611061   4.037080
    13  O    6.498465   6.522729   6.832777   6.832804   4.410106
    14  N    7.586818   7.909186   7.757524   7.757516   5.165149
    15  H    7.609770   8.063652   7.706802   7.706777   5.145460
    16  C    9.085696   9.336083   9.275962   9.275961   6.696947
    17  H    9.601991   9.891153   9.679474   9.851796   7.200136
    18  H    9.165290   9.288701   9.418080   9.418091   6.882984
    19  H    9.601998   9.891150   9.851812   9.679483   7.200141
                    6          7          8          9         10
     6  O    0.000000
     7  N    2.297960   0.000000
     8  H    3.198924   1.011511   0.000000
     9  C    2.874410   1.537427   2.193780   0.000000
    10  H    2.833023   2.138633   2.887410   1.099010   0.000000
    11  H    2.833010   2.138633   2.887416   1.099010   1.771640
    12  C    4.484992   2.720862   2.833209   1.621463   2.219019
    13  O    5.127156   2.996759   2.666104   2.483354   3.173420
    14  N    5.368270   3.973284   4.220881   2.584063   2.827055
    15  H    5.112641   4.149522   4.614216   2.625378   2.626711
    16  C    6.943421   5.441093   5.536129   4.133552   4.351946
    17  H    7.367127   5.999004   6.148684   4.650581   4.620344
    18  H    7.308546   5.531994   5.425403   4.434928   4.789899
    19  H    7.367127   5.999012   6.148698   4.650586   4.955675
                   11         12         13         14         15
    11  H    0.000000
    12  C    2.219021   0.000000
    13  O    3.173426   1.236661   0.000000
    14  N    2.827053   1.411072   2.330877   0.000000
    15  H    2.626703   2.057595   3.186914   1.013029   0.000000
    16  C    4.351947   2.735248   3.156490   1.576209   2.173196
    17  H    4.955675   3.381081   3.864720   2.175544   2.503928
    18  H    4.789896   2.852260   2.813719   2.167024   3.023270
    19  H    4.620350   3.381090   3.864737   2.175542   2.503915
                   16         17         18         19
    16  C    0.000000
    17  H    1.093019   0.000000
    18  H    1.093137   1.800707   0.000000
    19  H    1.093019   1.812508   1.800706   0.000000
 Stoichiometry    C5H10N2O2
 Framework group  C1[X(C5H10N2O2)]
 Deg. of freedom    51
 Full point group                 C1      NOp   1
 RotChk:  IX=0 Diff= 3.93D-17
 Largest Abelian subgroup         C1      NOp   1
 Largest concise Abelian subgroup C1      NOp   1
                         Standard orientation:                         
 ---------------------------------------------------------------------
 Center     Atomic      Atomic             Coordinates (Angstroms)
 Number     Number       Type             X           Y           Z
 ---------------------------------------------------------------------
      1          6           0       -4.738408    0.589053   -0.000014
      2          1           0       -4.830079    1.672334   -0.000022
      3          1           0       -4.914646    0.053537   -0.928487
      4          1           0       -4.914646    0.053549    0.928467
      5          6           0       -2.386048   -0.148065    0.000027
      6          8           0       -2.539667   -1.363342    0.000121
      7          7           0       -1.091745    0.421073   -0.000026
      8          1           0       -0.972787    1.425564   -0.000104
      9          6           0        0.182244   -0.439529    0.000026
     10          1           0        0.137220   -1.088526   -0.885750
     11          1           0        0.137228   -1.088407    0.885890
     12          6           0        1.626327    0.297876   -0.000032
     13          8           0        1.691158    1.532836   -0.000124
     14          7           0        2.764497   -0.536205    0.000024
     15          1           0        2.570242   -1.530435    0.000100
     16          6           0        4.310415   -0.228675   -0.000009
     17          1           0        4.738082   -0.665178   -0.906242
     18          1           0        4.422916    0.858657   -0.000073
     19          1           0        4.738099   -0.665073    0.906266
 ---------------------------------------------------------------------
 Rotational constants (GHZ):      5.1473910      0.4976456      0.4578653
 Leave Link  202 at Wed Sep  3 14:26:04 2025, MaxMem=  8053063680 cpu:         0.1
 (Enter /nexus/posix0/bmm/home/sucerqdl/sw/g09/l601.exe)
 Copying SCF densities to generalized density rwf, IOpCl= 0 IROHF=0.

 **********************************************************************

            Population analysis using the SCF density.

 **********************************************************************

 Orbital symmetries:
       Occupied  (A) (A) (A) (A) (A) (A) (A) (A) (A) (A) (A) (A)
                 (A) (A) (A) (A) (A) (A) (A) (A) (A) (A) (A) (A)
                 (A) (A) (A) (A) (A) (A) (A) (A) (A) (A) (A)
       Virtual   (A) (A) (A) (A) (A) (A) (A) (A) (A) (A) (A) (A)
                 (A) (A) (A) (A) (A) (A) (A) (A) (A) (A) (A) (A)
                 (A) (A) (A) (A) (A) (A) (A) (A) (A) (A) (A) (A)
                 (A) (A) (A) (A) (A) (A) (A) (A) (A) (A) (A) (A)
                 (A) (A) (A) (A) (A) (A) (A) (A) (A) (A) (A) (A)
                 (A) (A) (A) (A) (A) (A) (A) (A) (A) (A) (A) (A)
                 (A) (A) (A) (A) (A) (A) (A) (A) (A) (A) (A) (A)
                 (A) (A) (A) (A) (A) (A) (A) (A) (A) (A) (A) (A)
                 (A) (A) (A) (A) (A) (A)
 The electronic state is 1-A.
 Alpha  occ. eigenvalues --  -19.54399 -19.54201 -14.72806 -14.72228 -10.63176
 Alpha  occ. eigenvalues --  -10.61758 -10.54977 -10.53603 -10.51606  -1.15507
 Alpha  occ. eigenvalues --   -1.15249  -0.99939  -0.98896  -0.81839  -0.77265
 Alpha  occ. eigenvalues --   -0.75420  -0.64884  -0.64106  -0.58239  -0.53302
 Alpha  occ. eigenvalues --   -0.52254  -0.50777  -0.50507  -0.49604  -0.47694
 Alpha  occ. eigenvalues --   -0.47494  -0.47205  -0.45276  -0.44839  -0.42520
 Alpha  occ. eigenvalues --   -0.40779  -0.31812  -0.31282  -0.30151  -0.25046
 Alpha virt. eigenvalues --   -0.05434   0.03033   0.03138   0.04386   0.04750
 Alpha virt. eigenvalues --    0.06144   0.07034   0.07239   0.07945   0.08921
 Alpha virt. eigenvalues --    0.09579   0.10269   0.10890   0.10997   0.12112
 Alpha virt. eigenvalues --    0.12713   0.13301   0.13373   0.14802   0.15725
 Alpha virt. eigenvalues --    0.16464   0.17898   0.18376   0.20429   0.21166
 Alpha virt. eigenvalues --    0.21586   0.22380   0.22929   0.23528   0.24223
 Alpha virt. eigenvalues --    0.24245   0.25186   0.26737   0.26950   0.27543
 Alpha virt. eigenvalues --    0.27805   0.28368   0.29395   0.30544   0.31139
 Alpha virt. eigenvalues --    0.32696   0.33246   0.34238   0.35819   0.35909
 Alpha virt. eigenvalues --    0.36524   0.37664   0.39257   0.39430   0.42332
 Alpha virt. eigenvalues --    0.43488   0.45147   0.45725   0.47938   0.53791
 Alpha virt. eigenvalues --    0.57700   0.66715   0.67058   0.70664   0.71110
 Alpha virt. eigenvalues --    0.71683   0.73979   0.76252   0.76427   0.78678
 Alpha virt. eigenvalues --    0.79811   0.84958   0.85834   0.88542   0.93327
 Alpha virt. eigenvalues --    0.94285   0.98546   1.01343   1.01395   1.08052
 Alpha virt. eigenvalues --    1.11048   1.11682   1.12131   1.12156   1.13746
 Alpha virt. eigenvalues --    1.16955   1.18518   1.20430   1.22411   1.24023
 Alpha virt. eigenvalues --    1.28517   1.32588   1.33724   1.35924   1.36170
 Alpha virt. eigenvalues --    1.40098   1.43285   1.44029   1.46590   1.49619
 Alpha virt. eigenvalues --    1.51303   1.55849   1.57607   1.68469   1.83056
 Alpha virt. eigenvalues --    1.96436   2.12811
          Condensed to atoms (all electrons):
               1          2          3          4          5          6
     1  C    5.317269   0.364128   0.392298   0.392300   0.052273  -0.023812
     2  H    0.364128   0.498695  -0.025442  -0.025441  -0.012595   0.001972
     3  H    0.392298  -0.025442   0.467342  -0.023526  -0.026689   0.001098
     4  H    0.392300  -0.025441  -0.023526   0.467339  -0.026691   0.001098
     5  C    0.052273  -0.012595  -0.026689  -0.026691   5.511437   0.258023
     6  O   -0.023812   0.001972   0.001098   0.001098   0.258023   8.460432
     7  N   -0.012736   0.000533  -0.000757  -0.000757   0.121708  -0.237270
     8  H    0.002632  -0.000064   0.000005   0.000005   0.025273   0.007438
     9  C   -0.030942  -0.000690  -0.003155  -0.003156  -0.846578  -0.016857
    10  H   -0.000117   0.000000   0.000001   0.000000   0.005673   0.000305
    11  H   -0.000117   0.000000   0.000000   0.000001   0.005674   0.000305
    12  C    0.019921  -0.000381  -0.000154  -0.000154   0.336305   0.058077
    13  O    0.000004   0.000000   0.000000   0.000000   0.010455  -0.000514
    14  N    0.000125   0.000000   0.000000   0.000000   0.014956  -0.000576
    15  H    0.000000   0.000000   0.000000   0.000000   0.000575   0.000072
    16  C    0.000066   0.000000   0.000000   0.000000   0.003211   0.000027
    17  H    0.000000   0.000000   0.000000   0.000000   0.000013   0.000000
    18  H    0.000000   0.000000   0.000000   0.000000  -0.000061   0.000000
    19  H    0.000000   0.000000   0.000000   0.000000   0.000013   0.000000
               7          8          9         10         11         12
     1  C   -0.012736   0.002632  -0.030942  -0.000117  -0.000117   0.019921
     2  H    0.000533  -0.000064  -0.000690   0.000000   0.000000  -0.000381
     3  H   -0.000757   0.000005  -0.003155   0.000001   0.000000  -0.000154
     4  H   -0.000757   0.000005  -0.003156   0.000000   0.000001  -0.000154
     5  C    0.121708   0.025273  -0.846578   0.005673   0.005674   0.336305
     6  O   -0.237270   0.007438  -0.016857   0.000305   0.000305   0.058077
     7  N    7.595784   0.259056   0.111637  -0.045603  -0.045602  -0.133502
     8  H    0.259056   0.304928  -0.081447   0.001726   0.001726   0.044399
     9  C    0.111637  -0.081447  11.746015   0.333688   0.333684  -3.995862
    10  H   -0.045603   0.001726   0.333688   0.494984  -0.037745  -0.010315
    11  H   -0.045602   0.001726   0.333684  -0.037745   0.494984  -0.010313
    12  C   -0.133502   0.044399  -3.995862  -0.010315  -0.010313   8.284688
    13  O    0.018072   0.003845   0.077112   0.000585   0.000585   0.224607
    14  N    0.010670   0.002611  -0.765973   0.015124   0.015124   0.483461
    15  H    0.000551  -0.000005   0.035676  -0.000426  -0.000426  -0.027487
    16  C    0.002582   0.000731  -0.217893   0.002741   0.002741   0.017481
    17  H   -0.000025   0.000000   0.005239   0.000011  -0.000004  -0.001879
    18  H   -0.000045   0.000000  -0.009757  -0.000004  -0.000004  -0.009369
    19  H   -0.000025   0.000000   0.005240  -0.000004   0.000011  -0.001879
              13         14         15         16         17         18
     1  C    0.000004   0.000125   0.000000   0.000066   0.000000   0.000000
     2  H    0.000000   0.000000   0.000000   0.000000   0.000000   0.000000
     3  H    0.000000   0.000000   0.000000   0.000000   0.000000   0.000000
     4  H    0.000000   0.000000   0.000000   0.000000   0.000000   0.000000
     5  C    0.010455   0.014956   0.000575   0.003211   0.000013  -0.000061
     6  O   -0.000514  -0.000576   0.000072   0.000027   0.000000   0.000000
     7  N    0.018072   0.010670   0.000551   0.002582  -0.000025  -0.000045
     8  H    0.003845   0.002611  -0.000005   0.000731   0.000000   0.000000
     9  C    0.077112  -0.765973   0.035676  -0.217893   0.005239  -0.009757
    10  H    0.000585   0.015124  -0.000426   0.002741   0.000011  -0.000004
    11  H    0.000585   0.015124  -0.000426   0.002741  -0.000004  -0.000004
    12  C    0.224607   0.483461  -0.027487   0.017481  -0.001879  -0.009369
    13  O    8.478531  -0.224156   0.007909  -0.030011   0.000235   0.005902
    14  N   -0.224156   7.696020   0.269417   0.184410  -0.044558  -0.044446
    15  H    0.007909   0.269417   0.375546  -0.024960  -0.001052   0.002519
    16  C   -0.030011   0.184410  -0.024960   5.285300   0.385270   0.413336
    17  H    0.000235  -0.044558  -0.001052   0.385270   0.506070  -0.022833
    18  H    0.005902  -0.044446   0.002519   0.413336  -0.022833   0.444646
    19  H    0.000235  -0.044558  -0.001052   0.385269  -0.034533  -0.022833
              19
     1  C    0.000000
     2  H    0.000000
     3  H    0.000000
     4  H    0.000000
     5  C    0.000013
     6  O    0.000000
     7  N   -0.000025
     8  H    0.000000
     9  C    0.005240
    10  H   -0.000004
    11  H    0.000011
    12  C   -0.001879
    13  O    0.000235
    14  N   -0.044558
    15  H   -0.001052
    16  C    0.385269
    17  H   -0.034533
    18  H   -0.022833
    19  H    0.506071
 Mulliken charges:
               1
     1  C   -0.473292
     2  H    0.199284
     3  H    0.218980
     4  H    0.218983
     5  C    0.567025
     6  O   -0.509816
     7  N   -0.644271
     8  H    0.427142
     9  C   -0.675980
    10  H    0.239376
    11  H    0.239376
    12  C    0.722355
    13  O   -0.573393
    14  N   -0.567651
    15  H    0.363142
    16  C   -0.410299
    17  H    0.208045
    18  H    0.242948
    19  H    0.208044
 Sum of Mulliken charges =   0.00000
 Mulliken charges with hydrogens summed into heavy atoms:
               1
     1  C    0.163955
     5  C    0.567025
     6  O   -0.509816
     7  N   -0.217129
     9  C   -0.197227
    12  C    0.722355
    13  O   -0.573393
    14  N   -0.204509
    16  C    0.248738
 Electronic spatial extent (au):  <R**2>=           2377.6715
 Charge=              0.0000 electrons
 Dipole moment (field-independent basis, Debye):
    X=              2.7764    Y=             -1.1606    Z=              0.0000  Tot=              3.0092
 Quadrupole moment (field-independent basis, Debye-Ang):
   XX=            -37.8930   YY=            -60.9889   ZZ=            -55.5066
   XY=            -16.9013   XZ=              0.0012   YZ=              0.0005
 Traceless Quadrupole moment (field-independent basis, Debye-Ang):
   XX=             13.5699   YY=             -9.5261   ZZ=             -4.0438
   XY=            -16.9013   XZ=              0.0012   YZ=              0.0005
 Octapole moment (field-independent basis, Debye-Ang**2):
  XXX=             42.8668  YYY=             -2.4428  ZZZ=              0.0004  XYY=              7.6191
  XXY=              7.5072  XXZ=             -0.0008  XZZ=             -0.0992  YZZ=             -2.7545
  YYZ=             -0.0001  XYZ=             -0.0006
 Hexadecapole moment (field-independent basis, Debye-Ang**3):
 XXXX=          -2277.7731 YYYY=           -296.3710 ZZZZ=            -75.7355 XXXY=           -103.9391
 XXXZ=              0.0134 YYYX=            -53.4625 YYYZ=              0.0091 ZZZX=              0.0078
 ZZZY=              0.0078 XXYY=           -532.6984 XXZZ=           -466.6618 YYZZ=            -60.8953
 XXYZ=              0.0054 YYXZ=              0.0071 ZZXY=              5.7315
 N-N= 4.106508849558D+02 E-N=-1.885445766745D+03  KE= 4.524244168819D+02
 No NMR shielding tensors so no spin-rotation constants.
 Leave Link  601 at Wed Sep  3 14:26:04 2025, MaxMem=  8053063680 cpu:         1.3
 (Enter /nexus/posix0/bmm/home/sucerqdl/sw/g09/l9999.exe)
 1\1\GINC-SLURM-ORBIT-CPU1\FOpt\RBMK\6-31+G\C5H10N2O2\SUCERQDL\03-Sep-2
 025\0\\#P bmk/6-31+g opt(modredun,calcfc)\\Gaussian input prepared by 
 ASE\\0,1\C,-0.2327908427,0.0621137017,-0.0000068587\H,-0.4153731294,1.
 1338246997,-0.0000150538\H,-0.3632993915,-0.4863435317,-0.9284801701\H
 ,-0.3632998105,-0.4863307594,0.9284737397\C,2.1732944979,-0.4742605336
 ,0.0000342699\O,2.122575909,-1.698158742,0.0001282826\N,3.4150639171,0
 .2018658766,-0.0000185065\H,3.4489968312,1.2128072444,-0.0000972503\C,
 4.757008758,-0.5483787814,0.0000335457\H,4.766806108,-1.1988617948,-0.
 8857425209\H,4.7668040875,-1.1987419942,0.8858975306\C,6.1338537699,0.
 3080322569,-0.000025248\O,6.0944417949,1.5440647671,-0.0001164367\N,7.
 3382295456,-0.4272241368,0.0000310539\H,7.2284022849,-1.4342824643,0.0
 001073519\C,8.8527527616,0.0094158624,-0.0000021536\H,9.3156648442,-0.
 3895163284,-0.9062345276\H,8.8732750079,1.1023598083,-0.0000656656\H,9
 .3156721417,-0.389409948,0.9062732182\\Version=ES64L-G09RevD.01\State=
 1-A\HF=-455.9957743\RMSD=2.662e-09\RMSF=1.039e-02\Dipole=1.1268877,-0.
 3630024,0.000018\Quadrupole=12.0762017,-9.0697459,-3.0064559,-10.94637
 63,0.0008445,0.000445\PG=C01 [X(C5H10N2O2)]\\@


 WOMEN HOLD UP HALF THE SKY. -- MAO TSE TUNG
 Job cpu time:       0 days  0 hours 21 minutes  1.5 seconds.
 File lengths (MBytes):  RWF=    132 Int=      0 D2E=      0 Chk=      3 Scr=      2
 Normal termination of Gaussian 09 at Wed Sep  3 14:26:05 2025.
