Title Card Required                                                     
Freq      RBMK                                                        6-31+G              
Number of atoms                            I                6
Info1-9                                    I   N=           9
          20          20        1002           0           0         100
           6          18        -402
Full Title                                 C   N=           2
Title Card Required     
Route                                      C   N=           6
#N Geom=AllCheck Guess=TCheck SCRF=Check GenChk RBMK/6-31+G 
Freq        
Charge                                     I                0
Multiplicity                               I                1
Number of electrons                        I               18
Number of alpha electrons                  I                9
Number of beta electrons                   I                9
Number of basis functions                  I               34
Number of independent functions            I               34
Number of point charges in /Mol/           I                0
Number of translation vectors              I                0
Atomic numbers                             I   N=           6
           6           1           1           1           8           1
Nuclear charges                            R   N=           6
  6.00000000E+00  1.00000000E+00  1.00000000E+00  1.00000000E+00  8.00000000E+00
  1.00000000E+00
Current cartesian coordinates              R   N=          18
  1.29411076E+00 -4.32443305E-02 -3.94510095E-06  2.04207939E+00  1.87928633E+00
 -9.26402198E-04  1.96335757E+00 -1.03327206E+00  1.69915611E+00  1.96357820E+00
 -1.03498237E+00 -1.69807592E+00 -1.42981549E+00  2.29433335E-01 -1.76800762E-05
 -2.29515575E+00 -1.38703261E+00  1.13191318E-05
Number of symbols in /Mol/                 I                0
Redundant internal dimensions              I   N=           4
          15           5           7           3
Redundant internal coordinate indices      I   N=          60
           1           2           0           0           1           3
           0           0           1           4           0           0
           1           5           0           0           5           6
           0           0           2           1           3           0
           2           1           4           0           2           1
           5           0           3           1           4           0
           3           1           5           0           4           1
           5           0           1           5           6           0
           2           1           5           6           3           1
           5           6           4           1           5           6
Redundant internal coordinates             R   N=          15
  2.06290622E+00  2.07730381E+00  2.07730099E+00  2.73754038E+00  1.83351463E+00
  1.90468006E+00  1.90467789E+00  1.84205892E+00  1.91481831E+00  1.94770153E+00
  1.94789511E+00  1.96253342E+00  3.14114631E+00 -1.07523465E+00  1.07424187E+00
ZRed-IntVec                                I   N=          15
           0           0           0           0           0           0
           0           0           0           0           0           0
           0           0           0
ZRed-FPVec                                 R   N=          15
  0.00000000E+00  0.00000000E+00  0.00000000E+00  0.00000000E+00  0.00000000E+00
  0.00000000E+00  0.00000000E+00  0.00000000E+00  0.00000000E+00  0.00000000E+00
  0.00000000E+00  0.00000000E+00  0.00000000E+00  0.00000000E+00  0.00000000E+00
ZRed-Constraint1                           R   N=          15
  2.06290622E+00  2.07730381E+00  2.07730099E+00  2.73754038E+00  1.83351463E+00
  1.90468006E+00  1.90467789E+00  1.84205892E+00  1.91481831E+00  1.94770153E+00
  1.94789511E+00  1.96253342E+00  3.14114631E+00 -1.07523465E+00  1.07424187E+00
ZRed-Constraint2                           R   N=          15
  1.07000001E+00  1.07000000E+00  1.07000000E+00  1.43000000E+00  9.60000002E-01
  1.91063292E+00  1.91063342E+00  1.91063292E+00  1.91063320E+00  1.91063376E+00
  1.91063320E+00  1.91113553E+00  3.13963822E+00 -1.04915225E+00  1.04524311E+00
Force Field                                I                0
Atom Types                                 C   N=           6
                                                            
            
Int Atom Types                             I   N=           6
           0           0           0           0           0           0
MM charges                                 R   N=           6
  0.00000000E+00  0.00000000E+00  0.00000000E+00  0.00000000E+00  0.00000000E+00
  0.00000000E+00
Integer atomic weights                     I   N=           6
          12           1           1           1          16           1
Real atomic weights                        R   N=           6
  1.20000000E+01  1.00782504E+00  1.00782504E+00  1.00782504E+00  1.59949146E+01
  1.00782504E+00
Atom fragment info                         I   N=           6
           0           0           0           0           0           0
Atom residue num                           I   N=           6
           0           0           0           0           0           0
Nuclear spins                              I   N=           6
           0           1           1           1           0           1
Nuclear ZEff                               R   N=           6
 -3.60000000E+00 -1.00000000E+00 -1.00000000E+00 -1.00000000E+00 -5.60000000E+00
 -1.00000000E+00
Nuclear QMom                               R   N=           6
  0.00000000E+00  0.00000000E+00  0.00000000E+00  0.00000000E+00  0.00000000E+00
  0.00000000E+00
Nuclear GFac                               R   N=           6
  0.00000000E+00  2.79284600E+00  2.79284600E+00  2.79284600E+00  0.00000000E+00
  2.79284600E+00
MicOpt                                     I   N=           6
          -1          -1          -1          -1          -1          -1
Number of residues                         I                0
Number of secondary structures             I                0
Number of contracted shells                I               16
Number of primitive shells                 I               38
Pure/Cartesian d shells                    I                1
Pure/Cartesian f shells                    I                0
Highest angular momentum                   I                1
Largest degree of contraction              I                6
Shell types                                I   N=          16
           0          -1          -1          -1           0           0
           0           0           0           0           0          -1
          -1          -1           0           0
Number of primitives per shell             I   N=          16
           6           3           1           1           3           1
           3           1           3           1           6           3
           1           1           3           1
Shell to atom map                          I   N=          16
           1           1           1           1           2           2
           3           3           4           4           5           5
           5           5           6           6
Primitive exponents                        R   N=          38
  3.04752488E+03  4.57369518E+02  1.03948685E+02  2.92101553E+01  9.28666296E+00
  3.16392696E+00  7.86827235E+00  1.88128854E+00  5.44249258E-01  1.68714478E-01
  4.38000000E-02  1.87311370E+01  2.82539436E+00  6.40121692E-01  1.61277759E-01
  1.87311370E+01  2.82539436E+00  6.40121692E-01  1.61277759E-01  1.87311370E+01
  2.82539436E+00  6.40121692E-01  1.61277759E-01  5.48467166E+03  8.25234946E+02
  1.88046958E+02  5.29645000E+01  1.68975704E+01  5.79963534E+00  1.55396162E+01
  3.59993359E+00  1.01376175E+00  2.70005823E-01  8.45000000E-02  1.87311370E+01
  2.82539436E+00  6.40121692E-01  1.61277759E-01
Contraction coefficients                   R   N=          38
  1.83473713E-03  1.40373228E-02  6.88426223E-02  2.32184443E-01  4.67941348E-01
  3.62311985E-01 -1.19332420E-01 -1.60854152E-01  1.14345644E+00  1.00000000E+00
  1.00000000E+00  3.34946043E-02  2.34726953E-01  8.13757326E-01  1.00000000E+00
  3.34946043E-02  2.34726953E-01  8.13757326E-01  1.00000000E+00  3.34946043E-02
  2.34726953E-01  8.13757326E-01  1.00000000E+00  1.83107443E-03  1.39501722E-02
  6.84450781E-02  2.32714336E-01  4.70192898E-01  3.58520853E-01 -1.10777550E-01
 -1.48026263E-01  1.13076702E+00  1.00000000E+00  1.00000000E+00  3.34946043E-02
  2.34726953E-01  8.13757326E-01  1.00000000E+00
P(S=P) Contraction coefficients            R   N=          38
  0.00000000E+00  0.00000000E+00  0.00000000E+00  0.00000000E+00  0.00000000E+00
  0.00000000E+00  6.89990666E-02  3.16423961E-01  7.44308291E-01  1.00000000E+00
  1.00000000E+00  0.00000000E+00  0.00000000E+00  0.00000000E+00  0.00000000E+00
  0.00000000E+00  0.00000000E+00  0.00000000E+00  0.00000000E+00  0.00000000E+00
  0.00000000E+00  0.00000000E+00  0.00000000E+00  0.00000000E+00  0.00000000E+00
  0.00000000E+00  0.00000000E+00  0.00000000E+00  0.00000000E+00  7.08742682E-02
  3.39752839E-01  7.27158577E-01  1.00000000E+00  1.00000000E+00  0.00000000E+00
  0.00000000E+00  0.00000000E+00  0.00000000E+00
Coordinates of each shell                  R   N=          48
  1.29411076E+00 -4.32443305E-02 -3.94510095E-06  1.29411076E+00 -4.32443305E-02
 -3.94510095E-06  1.29411076E+00 -4.32443305E-02 -3.94510095E-06  1.29411076E+00
 -4.32443305E-02 -3.94510095E-06  2.04207939E+00  1.87928633E+00 -9.26402198E-04
  2.04207939E+00  1.87928633E+00 -9.26402198E-04  1.96335757E+00 -1.03327206E+00
  1.69915611E+00  1.96335757E+00 -1.03327206E+00  1.69915611E+00  1.96357820E+00
 -1.03498237E+00 -1.69807592E+00  1.96357820E+00 -1.03498237E+00 -1.69807592E+00
 -1.42981549E+00  2.29433335E-01 -1.76800762E-05 -1.42981549E+00  2.29433335E-01
 -1.76800762E-05 -1.42981549E+00  2.29433335E-01 -1.76800762E-05 -1.42981549E+00
  2.29433335E-01 -1.76800762E-05 -2.29515575E+00 -1.38703261E+00  1.13191318E-05
 -2.29515575E+00 -1.38703261E+00  1.13191318E-05
Constraint Structure                       R   N=          18
  1.29411076E+00 -4.32443305E-02 -3.94510095E-06  2.04207939E+00  1.87928633E+00
 -9.26402198E-04  1.96335757E+00 -1.03327206E+00  1.69915611E+00  1.96357820E+00
 -1.03498237E+00 -1.69807592E+00 -1.42981549E+00  2.29433335E-01 -1.76800762E-05
 -2.29515575E+00 -1.38703261E+00  1.13191318E-05
Num ILSW                                   I              100
ILSW                                       I   N=         100
           0           1           0           0           2           0
           0           0           0           0        3226          -1
           0           0           0           0           2           0
           0           0           1           0           1           0
           1           0           0           0           0           0
           0           0      100000           0          -1           0
           0           0           0           0           0           0
           0           0           0           1           0           0
           0           0           1           0           0           0
           0           0           4          40           0           0
           0           0          34           0           0           0
           0           0           0           0           0           0
           0           0           0           0           0           0
           0           0           0           0           0           0
           0           0           0           0           0           0
           0           0           0           0           0           0
           0           0           0           0
Num RLSW                                   I               40
RLSW                                       R   N=          40
  1.00000000E+00  1.00000000E+00  1.00000000E+00  1.00000000E+00  4.20000000E-01
  0.00000000E+00  0.00000000E+00  1.00000000E+00  0.00000000E+00  0.00000000E+00
  0.00000000E+00  0.00000000E+00  1.00000000E+00  0.00000000E+00  0.00000000E+00
  0.00000000E+00  0.00000000E+00  1.00000000E+00  0.00000000E+00  0.00000000E+00
  0.00000000E+00  0.00000000E+00  1.00000000E+00  0.00000000E+00  0.00000000E+00
  0.00000000E+00  0.00000000E+00  1.00000000E+00  0.00000000E+00  0.00000000E+00
  0.00000000E+00  0.00000000E+00  1.00000000E+00  0.00000000E+00  0.00000000E+00
  0.00000000E+00  0.00000000E+00  0.00000000E+00  1.00000000E+00  1.00000000E+00
MxBond                                     I                4
NBond                                      I   N=           6
           4           1           1           1           2           1
IBond                                      I   N=          24
           2           3           4           5           1           0
           0           0           1           0           0           0
           1           0           0           0           1           6
           0           0           5           0           0           0
RBond                                      R   N=          24
  1.00000000E+00  1.00000000E+00  1.00000000E+00  1.00000000E+00  1.00000000E+00
  0.00000000E+00  0.00000000E+00  0.00000000E+00  1.00000000E+00  0.00000000E+00
  0.00000000E+00  0.00000000E+00  1.00000000E+00  0.00000000E+00  0.00000000E+00
  0.00000000E+00  1.00000000E+00  1.00000000E+00  0.00000000E+00  0.00000000E+00
  1.00000000E+00  0.00000000E+00  0.00000000E+00  0.00000000E+00
Virial Ratio                               R      2.005900895654987E+00
SCF Energy                                 R     -1.156178351950138E+02
Total Energy                               R     -1.156178351950138E+02
RMS Force                                  R      7.830368445315890E-05
RMS Density                                R      6.287447281425260E-10
External E-field                           R   N=          35
  0.00000000E+00  0.00000000E+00  0.00000000E+00  0.00000000E+00  0.00000000E+00
  0.00000000E+00  0.00000000E+00  0.00000000E+00  0.00000000E+00  0.00000000E+00
  0.00000000E+00  0.00000000E+00  0.00000000E+00  0.00000000E+00  0.00000000E+00
  0.00000000E+00  0.00000000E+00  0.00000000E+00  0.00000000E+00  0.00000000E+00
  0.00000000E+00  0.00000000E+00  0.00000000E+00  0.00000000E+00  0.00000000E+00
  0.00000000E+00  0.00000000E+00  0.00000000E+00  0.00000000E+00  0.00000000E+00
  0.00000000E+00  0.00000000E+00  0.00000000E+00  0.00000000E+00  0.00000000E+00
IOpCl                                      I                0
IROHF                                      I                0
Alpha Orbital Energies                     R   N=          34
 -1.95496810E+01 -1.05220044E+01 -1.11185292E+00 -7.61169379E-01 -5.60856328E-01
 -4.96412803E-01 -4.76556789E-01 -3.75196537E-01 -3.24852503E-01  4.20424236E-02
  6.14144234E-02  8.65474266E-02  8.86345436E-02  1.94169890E-01  2.15594556E-01
  2.28988942E-01  2.37448046E-01  2.44907040E-01  2.69042630E-01  3.08407189E-01
  3.15938886E-01  3.78419600E-01  6.92222973E-01  7.00405277E-01  7.17038403E-01
  1.03558673E+00  1.03792368E+00  1.13005818E+00  1.15861241E+00  1.29377924E+00
  1.29779234E+00  1.35420203E+00  1.38661775E+00  1.89161522E+00
Alpha MO coefficients                      R   N=        1156
 -6.57540611E-06 -6.06644532E-05 -6.44909024E-04  3.14401893E-05  1.88589406E-08
  3.62108201E-03 -1.48291235E-03  2.68024161E-05 -7.36034324E-08 -3.56347822E-03
  2.45702467E-03 -1.48924832E-04 -5.81001608E-08 -2.24045260E-04 -1.10957256E-03
 -3.18428238E-04 -8.13463781E-04 -3.18367993E-04 -8.13634990E-04  9.95339005E-01
  2.77903522E-02  1.02585810E-03 -1.63267399E-03  2.46093105E-08 -1.66366692E-02
 -2.32293876E-03  1.52235843E-03 -3.33018611E-08  8.77501778E-03  1.74816668E-03
  9.02678716E-05  5.63985109E-08  3.84325964E-04  1.39791434E-03  9.95477805E-01
  3.69756776E-02 -1.08709522E-03  3.39866819E-05 -5.91774581E-08 -3.44809171E-02
  2.71565415E-03 -4.62399978E-04  2.19732824E-08 -6.37776277E-03  1.71977201E-03
 -4.70295383E-05  9.92434114E-08 -4.57472671E-04  5.99140351E-03 -4.85781286E-04
  5.61807606E-03 -4.85943963E-04  5.61831248E-03  3.85455229E-05  4.72648607E-04
 -2.33091845E-04  5.41348687E-05 -4.46112006E-09  9.46524688E-04  1.23651413E-03
 -3.19431637E-04  1.85853700E-08  1.41016758E-02  4.64994616E-03 -1.42991603E-03
 -1.48403909E-07  1.63418389E-04 -1.66091298E-03 -7.03871285E-02  1.33020212E-01
 -9.50723945E-02  3.40446089E-03 -1.34331255E-07  5.21969040E-02  1.51742877E-02
 -8.79792216E-03  5.93806454E-06  2.01168942E-02 -1.52264048E-02  1.69350178E-04
  1.97131378E-06  2.26204060E-02  9.54994499E-03  2.28600301E-02 -3.25352197E-03
  2.28578355E-02 -3.24806258E-03 -2.05068081E-01  4.48148760E-01  5.27008425E-02
 -1.10092681E-01  2.70228524E-06  4.73381868E-01  4.45206012E-02 -5.66136074E-02
  1.11518345E-06 -1.05688409E-02 -1.46286942E-02 -8.10338382E-03 -6.94012647E-07
  1.40066184E-01 -2.21263217E-02 -1.82269417E-01  3.54723807E-01  5.21492589E-02
  1.20463737E-02  8.24691797E-07  3.84242776E-01  1.33604199E-02 -5.51294442E-03
  4.18804147E-07  2.34178335E-02 -5.96013879E-04 -2.17781272E-04 -3.90347439E-07
  1.38249452E-01  3.27677060E-02  1.30866553E-01  2.92316201E-02  1.30870938E-01
  2.92303693E-02  5.66404876E-02 -1.28852725E-01  1.88226513E-01  9.45785088E-02
 -4.88591123E-07 -1.73422389E-01  6.75999853E-02  4.54120865E-02  1.42203243E-07
 -4.79901423E-02 -7.34541883E-03  6.67943714E-03  2.46956613E-07 -1.31089213E-01
 -2.12057688E-02  2.83753734E-02 -4.46594228E-02 -2.42775849E-01  2.11897484E-01
  1.94300048E-05 -9.62155640E-02 -6.61587247E-02  9.99248794E-02 -2.11566100E-06
 -1.11298914E-02 -5.06951261E-03  1.02588256E-02 -3.71138078E-06  2.67247818E-02
  7.82653658E-03 -1.21972512E-01 -6.13041211E-02 -1.22091765E-01 -6.13867343E-02
 -4.02949491E-02  9.33287910E-02  3.00303941E-01  3.03566250E-01  2.44477742E-06
  1.49132738E-01  1.56562727E-01  1.54844103E-01  1.55305445E-06  1.30925573E-02
 -4.11735622E-03  4.98633669E-03  2.22640936E-06 -2.20317938E-01 -1.14983593E-01
 -1.79304778E-06  3.23283905E-06 -3.30856559E-05 -3.98795385E-05  4.25988669E-01
  4.83366681E-06 -1.17543848E-05 -3.64300409E-05  1.85381458E-01 -1.67909696E-06
  1.18888837E-06 -7.05218404E-06  1.14581923E-02 -1.38616123E-04 -7.63481946E-05
  2.05493958E-01  1.46310441E-01 -2.05355727E-01 -1.46240061E-01  9.23335292E-06
 -2.18343341E-05  2.23492601E-05 -4.08988701E-05  2.61051170E-01 -3.19491125E-05
  1.18976553E-05 -2.50112018E-05  1.57938211E-01  5.10792761E-06  3.48987619E-06
 -1.42853215E-06  1.55543300E-02  8.30857096E-06 -2.74700934E-06 -6.14052857E-04
 -7.15912305E-03  2.59862983E-01  3.37556044E-01  5.05272702E-05  3.95680613E-02
  9.28416327E-02  1.87563808E-01  1.34549808E-05  1.40229565E-02  7.63619038E-03
  1.84921979E-02 -1.42860060E-06  2.51439535E-01  1.52073136E-01 -4.68850658E-02
 -2.44993504E-02 -4.70968148E-02 -2.46556107E-02 -2.22745975E-02  5.47402356E-02
 -3.13771164E-01  1.13956442E-01  3.22734230E-05  5.92688764E-02 -1.89321658E-01
  7.41715921E-02  1.99449118E-05  8.02236571E-04 -2.92155455E-02 -4.05321570E-04
  4.38151185E-06  6.87016794E-02  3.85680245E-02  1.38080939E-02 -3.68653947E-02
  1.28424045E-01 -2.52165437E-01  1.03417507E-05 -6.43123062E-03  3.92204540E-02
 -7.91581344E-02  9.51242900E-06  3.33132338E-03  1.14390283E-02 -1.33819475E-02
  9.84236491E-07 -1.61812405E-01 -1.64940339E-01  1.08146122E-01  1.21065889E-01
  1.08317693E-01  1.21246839E-01 -6.28251466E-02  1.48891637E-01 -2.10582462E-01
  4.42255845E-01  4.78600308E-05  2.33791708E-01 -1.46205285E-01  2.86074160E-01
  3.39450007E-05  6.44609522E-02 -4.13953401E-02  5.34634667E-02  2.76482882E-06
 -1.44111550E-01 -1.13664146E-01  1.00184604E-06  9.10400374E-07 -7.96317974E-06
  2.56862927E-05 -1.90671521E-01 -1.92809555E-05 -6.64062798E-06  1.29036878E-05
 -6.78150754E-02 -7.58749675E-06 -1.10401090E-06  1.99369875E-06 -2.58301220E-02
  9.03437795E-05  1.11019237E-04 -1.49269884E-01 -1.72587977E-01  1.49168185E-01
  1.72476508E-01  3.27783592E-06 -7.84996178E-06  2.96195308E-05 -2.32125628E-05
  5.92805953E-01 -1.07709994E-05  2.25687441E-05 -1.47759513E-05  4.25929659E-01
 -3.29757659E-07  5.08892775E-06 -7.62089863E-06  1.09666386E-01  1.09808143E-05
  7.48140451E-06  1.72912201E-02 -1.08564014E-01 -1.31642880E-01  5.57060600E-02
 -8.98440177E-06  1.98755347E-01 -4.07350647E-01  3.79378448E-02  2.30179354E-05
  1.94330937E+00 -9.38552305E-01 -3.38772491E-01  1.78688792E-05  1.55901270E-02
  6.56308559E-02  7.46063260E-03 -8.35265017E-02  7.45588505E-03 -8.35369953E-02
  4.66988046E-02 -1.27951346E-01  1.22889340E-02  1.21779786E-01 -1.30807464E-06
 -2.92764866E-01 -5.97919629E-02  1.75115028E-01 -6.69295947E-06 -1.82326836E+00
 -3.53589749E-01  1.71954084E-01 -1.88260310E-06  5.50920325E-02  4.54037477E-01
  6.84451256E-02 -1.63884318E-01  2.04265483E-03  1.56982251E-02  1.13559821E-05
 -3.98322470E-01  5.63817822E-02  7.51132546E-03  9.96852532E-06  7.96890741E-01
  9.50213124E-01 -1.05144672E-01 -2.03037531E-05  3.68911469E-03 -1.53276056E-01
  3.23351922E-03 -1.40999618E-01  3.23988224E-03 -1.41008816E-01 -2.88840438E-02
  7.13599706E-02  9.19715097E-02 -6.01420222E-02 -1.36462058E-06  2.02013504E-01
  1.09625270E-01 -7.67878573E-02 -3.57161980E-06  2.50834281E-01 -3.47783555E-02
  4.42925664E-02  1.27905480E-05 -3.06180113E-02 -1.12191981E-01  5.59764346E-03
 -4.18642598E-02 -6.55283656E-02 -1.64585887E-01  4.74784736E-05  8.39431973E-02
 -1.85808087E-01 -5.24627466E-02  4.54793308E-06  7.55572852E-01 -2.60421152E-01
  1.36652780E+00 -5.04934180E-04 -8.59398256E-03 -2.53888063E-01  1.27593057E-02
  1.19140043E-01  1.27489858E-02  1.19139740E-01  1.32641426E-02 -4.60123883E-02
 -1.38192840E-02 -3.18853363E-02  1.73883690E-05 -2.76180961E-02 -6.50635209E-02
  4.34381169E-03 -3.73427247E-06 -4.98779110E-01 -2.69533127E-01 -4.89952529E-01
  1.34817424E-04 -9.70309726E-04 -2.38256679E-01  3.02180629E-06 -1.88365377E-05
 -1.44725389E-05 -7.12740480E-05 -1.89791412E-01  2.69364732E-05 -5.31893880E-05
 -7.15588846E-05 -1.62428890E-01  2.65700250E-04 -7.97022193E-05  4.90698706E-04
  1.37606413E+00  6.10955895E-06  5.33967014E-05 -1.17720593E-02 -1.73319629E-01
  1.17682258E-02  1.73208169E-01  2.81723925E-06 -1.09966994E-05  2.10379300E-06
 -9.05894512E-06 -2.98556769E-02  2.90542527E-07 -1.57352575E-05  7.81411620E-06
  3.78931413E-02 -1.34081715E-04 -7.45741271E-05 -1.91410469E-04 -3.69996099E-01
  6.15597673E-07 -1.02473882E-04 -5.74287483E-02  1.12029375E-01 -1.39157373E-01
 -1.92448298E-02  3.69854251E-05  6.20346416E-01 -9.28346013E-02  7.11279683E-02
  1.81937490E-04 -1.06648357E+00  1.27699029E+00  2.91456920E-01  7.54724575E-05
 -4.54364831E-02 -1.74516731E-01 -2.12078192E-02 -1.88792990E-01 -2.11768966E-02
 -1.88378916E-01  6.32709410E-02 -9.98106206E-02  2.98052054E-02  2.37905966E-01
 -1.36581809E-05 -8.41163827E-01  1.07025407E-01  3.35813299E-01 -2.66858724E-05
  1.84991251E+00 -6.01677954E-01 -7.00331208E-01 -2.56927524E-05  1.28138487E-01
  2.82803026E-01  2.00437627E-02  2.77670535E-02 -2.83645350E-01 -1.40961366E-01
  3.37148624E-06 -8.93562522E-01 -7.48613644E-01 -6.68379570E-01  1.01527467E-04
 -1.26679757E+00  5.84049050E-01 -2.29404771E-01  1.16677326E-05  1.32532855E-01
  1.29273019E+00  2.15794765E-03  3.02816098E-03  2.09437905E-03  2.57320835E-03
  4.09577530E-02 -3.52574909E-02 -2.57530700E-01  1.19784159E-01 -4.61025363E-06
 -7.40610030E-01 -4.41236599E-01  2.05670269E-01 -1.43713029E-05  1.29221600E+00
  1.01618974E+00  7.71301462E-02  1.16290539E-05  3.08807695E-02  3.18699303E-01
  3.74858278E-02  8.23476743E-04 -1.22116314E-01  3.23079416E-01 -3.05718744E-04
 -9.90937421E-01 -2.68497149E-01  1.33000013E+00 -1.18861015E-03 -1.02829014E+00
  3.33991764E-01  5.44895404E-01 -4.05063882E-04 -1.07012285E-01 -1.28982169E+00
  1.10467105E-01  1.30498429E+00  1.10358222E-01  1.30381117E+00  2.50171125E-02
 -3.16438001E-02 -6.21286661E-02  6.94387613E-03  7.09001083E-05 -3.94496338E-01
 -1.72837121E-01 -7.16060434E-02  1.40295913E-04  1.27166969E+00  5.09199902E-01
 -5.48832402E-01  1.78141313E-04  6.62885432E-02 -1.42222665E-01  1.31322148E-04
 -1.70094098E-04  3.14635749E-04  2.29285632E-04  3.87745782E-01 -2.11838206E-03
  8.89798279E-04  8.37226544E-04  1.44539210E+00 -7.64745011E-04 -5.11883072E-04
  9.89056640E-04  5.73011716E-01 -4.85404323E-05 -1.19838798E-04 -1.26547953E-01
 -1.73741248E+00  1.26652614E-01  1.73845730E+00 -3.06905535E-05  7.29084689E-05
  3.39090103E-04  2.41721707E-04 -1.25570026E-01  1.62703303E-04  5.97330537E-04
  4.87239670E-04 -2.30399530E-01  4.03471599E-05  1.79809651E-03 -6.48258466E-04
 -1.39524852E-01  2.07369388E-04  1.69653164E-03 -7.61518091E-02  1.01994682E-01
 -2.96508139E-01  5.59741452E-02  4.71826684E-04  1.14941875E+00 -9.61233311E-01
  1.40145696E-01  1.72267901E-03  2.57121404E-01  3.34594684E-01 -4.89650721E-01
  7.01019838E-04  1.67883773E-02 -1.05331665E-01  3.45101384E-03  1.49958264E-01
  3.74771027E-03  1.54363477E-01  4.41654685E-02 -7.92326513E-02 -2.38649963E-01
 -1.95947892E-01 -1.62687532E-04 -4.74175440E-01 -4.63461498E-01 -3.57772066E-01
 -2.96607805E-04 -5.14420955E-01 -9.69021740E-01  1.02231327E+00 -1.07569585E-04
 -5.59857656E-02 -3.01790405E-01  5.89761598E-06 -5.23208432E-06  1.37045723E-05
 -3.80675355E-05 -4.14046629E-02 -9.50268592E-05  7.16779642E-05 -1.38963745E-04
 -4.04924627E-01 -4.88738532E-05  1.39343557E-05 -7.00464163E-06 -8.31078640E-01
  3.89373978E-06  1.63248006E-04  2.09132909E-02  2.63302125E-01 -2.09053678E-02
 -2.63399408E-01 -1.00580222E-05  1.45904054E-05  3.20579905E-06 -4.86427419E-06
 -2.43845912E-01  1.51307031E-04  1.20373824E-05 -2.77105916E-05 -4.44783522E-01
  3.41732511E-04 -1.36781275E-04 -3.23838633E-04  1.73328775E+00 -3.41484886E-05
 -4.78348770E-04 -1.37737787E-03 -1.27743429E-02  1.14811173E-01  1.75769031E-02
 -2.50710600E-04  1.20379306E-01  3.98365698E-01 -2.27767987E-01 -8.60373999E-04
 -7.69315901E-02  5.52032286E-02 -4.48291674E-01 -5.37583342E-04 -6.67549901E-02
 -5.63432879E-01 -6.35897265E-03 -1.79813605E-01 -6.45785970E-03 -1.81873039E-01
  4.22282557E-02 -7.24865216E-02  1.61440707E-01  7.04509643E-02  2.20746109E-05
 -6.34902475E-01  3.75856193E-01  2.14753872E-01  2.99160343E-05 -9.42867215E-01
  9.43096884E-01  2.09165895E+00  3.70405619E-04  1.98469657E-01  2.79544263E+00
 -1.41407192E-01  1.96889618E-01  1.07465708E-02  5.06729643E-02  1.52125037E-05
  2.64619772E+00 -8.53673322E-02  2.91775638E-01  1.01201786E-04  2.19890490E+00
 -3.01701423E-01  2.09171196E-01  9.59393338E-06 -7.24794295E-02 -1.86890185E+00
 -3.81585543E-02 -1.36741690E+00 -3.81424887E-02 -1.36693685E+00  5.52418107E-03
 -2.94516248E-03 -2.46010602E-01  5.53184338E-02 -1.06747286E-05 -1.09631790E-01
 -5.70716890E-01  1.37100156E-01 -3.43033149E-05 -1.92598436E+00  5.35707507E-01
 -1.75317111E-01  8.40550326E-05  1.41443759E-02  2.18275344E-01  1.37660486E-02
  4.72705006E-03  2.08487192E-01 -2.01168184E-02  1.40783392E-04 -6.86269198E-01
  1.06950294E+00  5.55165457E-03  3.55236489E-04 -1.71629240E+00  1.08469707E+00
 -7.33974776E-02  2.26988927E-04 -6.34355670E-03 -7.04497532E-01 -5.91090734E-02
 -8.65450554E-01 -5.90839172E-02 -8.64547592E-01  3.03543522E-02 -5.33985172E-02
  3.32187802E-02 -1.16001733E-01 -1.58539003E-05 -5.24457489E-01  8.99320457E-02
 -4.64604467E-01 -1.63184373E-05  6.28688983E+00  1.22912589E+00 -9.53174496E-01
 -6.30378947E-05 -1.06618300E-01 -2.24276911E+00 -4.86102999E-03  7.14825943E-02
 -4.39800508E-01 -9.13320214E-01  6.78508099E-04 -2.41789787E-01  9.19783497E-01
  1.84963106E+00 -1.33335991E-03 -2.01916093E-01 -1.25842078E-01 -3.66222679E-01
  2.90645453E-04 -3.06159138E-01 -5.99066358E-01  7.70840071E-02  7.94778276E-02
  7.69950809E-02  7.93422312E-02  1.02766207E-02 -8.30932215E-02 -7.90993490E-02
 -8.80513757E-03  1.39638722E-05  2.36741618E-01  4.64228187E-02 -2.79271001E-01
  1.66877393E-04  7.56347638E-01  3.55109590E-01 -2.65963037E-01  7.72633494E-05
  1.52849596E-02 -2.69766324E-01 -1.33606249E-02  3.77856508E-02 -9.15144807E-01
  4.14535381E-01 -1.70897011E-04 -3.91769968E-01  2.08612050E+00 -8.65784917E-01
  3.15952953E-04 -4.58872562E-01 -3.12810197E-01  1.60274859E-01 -9.55094966E-05
 -4.22646309E-02 -1.55424657E-01 -2.20287848E-01 -3.99330011E-01 -2.20334879E-01
 -3.99407855E-01  1.70386436E-02 -1.85866028E-01 -2.76957701E-01  2.72106360E-02
  3.68748226E-07  7.08147317E-01  3.67112447E-01  2.04213613E-03 -4.46136304E-05
  1.23304227E+00  7.87607890E-01 -3.65896171E-02  2.25598383E-05 -5.27741835E-02
 -4.71094278E-02 -2.14180271E-06  4.13487860E-05 -1.39089705E-04 -6.85876195E-04
 -9.90266069E-01 -1.20938337E-04  2.34682943E-04  1.52568300E-03  2.13735036E+00
 -1.81559400E-04  5.48427057E-05 -1.63409837E-04 -3.44542558E-01 -4.76248469E-05
 -2.35974390E-04 -2.58037564E-01 -5.26093125E-01  2.58056096E-01  5.26033811E-01
  2.17848025E-06 -5.07691858E-06 -4.30775903E-05 -7.94509702E-05 -4.45801757E-02
 -1.43909799E-05 -7.16485786E-05 -2.13357534E-04 -2.34604384E-01  8.91435712E-04
  1.38291440E-04 -4.98084882E-04 -1.97831199E-01 -6.34664635E-05 -5.59098778E-04
 -4.05470800E-05  5.76757167E-05  2.97544543E-04 -2.55191845E-03 -5.53090269E-01
 -1.51548470E-04 -4.33507087E-04  3.71668364E-03  7.90955993E-01  1.90911777E-04
 -5.37480881E-04  1.60309989E-03  3.86239719E-01  3.82966068E-03 -6.58056158E-03
  8.94141718E-01 -1.52860623E+00 -8.99489923E-01  1.53768141E+00 -1.35135849E-05
 -3.40551668E-04  3.45897495E-04  1.88281699E-03  3.34377437E-01  8.54097899E-04
 -4.81393656E-04 -2.69445353E-03 -4.49239063E-01 -2.03613796E-03 -2.30461350E-04
  1.12167864E-03  9.97744591E-02 -3.45286665E-04  3.99298252E-04  7.13708647E-03
 -4.95280355E-02 -4.88734918E-02  5.10153835E-01 -2.67380734E-03  1.08855521E-01
  7.94142981E-02 -7.27800391E-01  3.77094799E-03 -4.86061519E-02  1.08851554E-01