 Entering Gaussian System, Link 0=g09
 Input=moh-x0-au.com
 Output=moh-x0-au.log
 Initial command:
 /hits/fast/mbm/software/gaussian/g09d1/g09/l1.exe /hits/fast/mbm/farrugma/gaussian_scratch/Gau-9896.inp -scrdir=/hits/fast/mbm/farrugma/gaussian_scratch/
 Entering Link 1 = /hits/fast/mbm/software/gaussian/g09d1/g09/l1.exe PID=      9897.
  
 Copyright (c) 1988,1990,1992,1993,1995,1998,2003,2009,2013,
            Gaussian, Inc.  All Rights Reserved.
  
 This is part of the Gaussian(R) 09 program.  It is based on
 the Gaussian(R) 03 system (copyright 2003, Gaussian, Inc.),
 the Gaussian(R) 98 system (copyright 1998, Gaussian, Inc.),
 the Gaussian(R) 94 system (copyright 1995, Gaussian, Inc.),
 the Gaussian 92(TM) system (copyright 1992, Gaussian, Inc.),
 the Gaussian 90(TM) system (copyright 1990, Gaussian, Inc.),
 the Gaussian 88(TM) system (copyright 1988, Gaussian, Inc.),
 the Gaussian 86(TM) system (copyright 1986, Carnegie Mellon
 University), and the Gaussian 82(TM) system (copyright 1983,
 Carnegie Mellon University). Gaussian is a federally registered
 trademark of Gaussian, Inc.
  
 This software contains proprietary and confidential information,
 including trade secrets, belonging to Gaussian, Inc.
  
 This software is provided under written license and may be
 used, copied, transmitted, or stored only in accord with that
 written license.
  
 The following legend is applicable only to US Government
 contracts under FAR:
  
                    RESTRICTED RIGHTS LEGEND
  
 Use, reproduction and disclosure by the US Government is
 subject to restrictions as set forth in subparagraphs (a)
 and (c) of the Commercial Computer Software - Restricted
 Rights clause in FAR 52.227-19.
  
 Gaussian, Inc.
 340 Quinnipiac St., Bldg. 40, Wallingford CT 06492
  
  
 ---------------------------------------------------------------
 Warning -- This program may not be used in any manner that
 competes with the business of Gaussian, Inc. or will provide
 assistance to any competitor of Gaussian, Inc.  The licensee
 of this program is prohibited from giving any competitor of
 Gaussian, Inc. access to this program.  By using this program,
 the user acknowledges that Gaussian, Inc. is engaged in the
 business of creating and licensing software in the field of
 computational chemistry and represents and warrants to the
 licensee that it is not a competitor of Gaussian, Inc. and that
 it will not use this program in any manner prohibited above.
 ---------------------------------------------------------------
  

 Cite this work as:
 Gaussian 09, Revision D.01,
 M. J. Frisch, G. W. Trucks, H. B. Schlegel, G. E. Scuseria, 
 M. A. Robb, J. R. Cheeseman, G. Scalmani, V. Barone, B. Mennucci, 
 G. A. Petersson, H. Nakatsuji, M. Caricato, X. Li, H. P. Hratchian, 
 A. F. Izmaylov, J. Bloino, G. Zheng, J. L. Sonnenberg, M. Hada, 
 M. Ehara, K. Toyota, R. Fukuda, J. Hasegawa, M. Ishida, T. Nakajima, 
 Y. Honda, O. Kitao, H. Nakai, T. Vreven, J. A. Montgomery, Jr., 
 J. E. Peralta, F. Ogliaro, M. Bearpark, J. J. Heyd, E. Brothers, 
 K. N. Kudin, V. N. Staroverov, T. Keith, R. Kobayashi, J. Normand, 
 K. Raghavachari, A. Rendell, J. C. Burant, S. S. Iyengar, J. Tomasi, 
 M. Cossi, N. Rega, J. M. Millam, M. Klene, J. E. Knox, J. B. Cross, 
 V. Bakken, C. Adamo, J. Jaramillo, R. Gomperts, R. E. Stratmann, 
 O. Yazyev, A. J. Austin, R. Cammi, C. Pomelli, J. W. Ochterski, 
 R. L. Martin, K. Morokuma, V. G. Zakrzewski, G. A. Voth, 
 P. Salvador, J. J. Dannenberg, S. Dapprich, A. D. Daniels, 
 O. Farkas, J. B. Foresman, J. V. Ortiz, J. Cioslowski, 
 and D. J. Fox, Gaussian, Inc., Wallingford CT, 2013.
 
 ******************************************
 Gaussian 09:  ES64L-G09RevD.01 24-Apr-2013
                 6-Jul-2022 
 ******************************************
 %chk=moh-x0-au.chk
 ----------------------------------------------------------------------
 # opt=calcfc freq=(savenormalmodes, IntModes) units=(AU, Rad) 6-31+g g
 eom=(connectivity) bmk
 ----------------------------------------------------------------------
 1/10=4,14=-1,18=20,19=15,20=3,26=3,38=1,57=2/1,3;
 2/9=110,12=2,17=6,18=5,40=1/2;
 3/5=1,6=6,7=10,11=2,16=1,25=1,30=1,71=2,74=-34,140=1/1,2,3;
 4//1;
 5/5=2,38=5/2;
 8/6=4,10=90,11=11/1;
 11/6=1,8=1,9=11,15=111,16=1/1,2,10;
 10/6=1,13=1/2;
 6/7=2,8=2,9=2,10=2,28=1/1;
 7/10=1,18=20,25=1,92=1/1,2,3,16;
 1/10=4,14=-1,18=20,19=15,26=3/3(2);
 2/9=110/2;
 99//99;
 2/9=110/2;
 3/5=1,6=6,7=10,11=2,16=1,25=1,30=1,71=1,74=-34/1,2,3;
 4/5=5,16=3,69=1/1;
 5/5=2,38=5/2;
 7/92=1/1,2,3,16;
 1/14=-1,18=20,19=15,26=3/3(-5);
 2/9=110/2;
 6/7=2,8=2,9=2,10=2,19=2,28=1/1;
 99/9=1/99;
 -------------------
 Title Card Required
 -------------------
 Symbolic Z-matrix:
 Charge =  0 Multiplicity = 1
 C                    -1.54467  -0.08685   0. 
 H                    -1.18801  -1.09566   0. 
 H                    -1.18799   0.41755   0.87365 
 H                    -2.61467  -0.08684   0. 
 O                    -1.06799   0.58725  -1.16759 
 H                    -1.38919   1.49192  -1.16889 
 

 GradGradGradGradGradGradGradGradGradGradGradGradGradGradGradGradGradGrad
 Berny optimization.
 Initialization pass.
                           ----------------------------
                           !    Initial Parameters    !
                           ! (Angstroms and Degrees)  !
 --------------------------                            --------------------------
 ! Name  Definition              Value          Derivative Info.                !
 --------------------------------------------------------------------------------
 ! R1    R(1,2)                  0.5662         calculate D2E/DX2 analytically  !
 ! R2    R(1,3)                  0.5662         calculate D2E/DX2 analytically  !
 ! R3    R(1,4)                  0.5662         calculate D2E/DX2 analytically  !
 ! R4    R(1,5)                  0.7567         calculate D2E/DX2 analytically  !
 ! R5    R(5,6)                  0.508          calculate D2E/DX2 analytically  !
 ! A1    A(2,1,3)              109.4712         calculate D2E/DX2 analytically  !
 ! A2    A(2,1,4)              109.4712         calculate D2E/DX2 analytically  !
 ! A3    A(2,1,5)              109.4712         calculate D2E/DX2 analytically  !
 ! A4    A(3,1,4)              109.4712         calculate D2E/DX2 analytically  !
 ! A5    A(3,1,5)              109.4713         calculate D2E/DX2 analytically  !
 ! A6    A(4,1,5)              109.4712         calculate D2E/DX2 analytically  !
 ! A7    A(1,5,6)              109.5            calculate D2E/DX2 analytically  !
 ! D1    D(2,1,5,6)            179.888          calculate D2E/DX2 analytically  !
 ! D2    D(3,1,5,6)            -60.112          calculate D2E/DX2 analytically  !
 ! D3    D(4,1,5,6)             59.888          calculate D2E/DX2 analytically  !
 --------------------------------------------------------------------------------
 Trust Radius=3.00D-01 FncErr=1.00D-07 GrdErr=1.00D-06
 Number of steps in this run=     25 maximum allowed number of steps=    100.
 GradGradGradGradGradGradGradGradGradGradGradGradGradGradGradGradGradGrad

                          Input orientation:                          
 ---------------------------------------------------------------------
 Center     Atomic      Atomic             Coordinates (Angstroms)
 Number     Number       Type             X           Y           Z
 ---------------------------------------------------------------------
      1          6           0       -0.817402   -0.045958    0.000000
      2          1           0       -0.628668   -0.579798    0.000000
      3          1           0       -0.628658    0.220958    0.462316
      4          1           0       -1.383621   -0.045951    0.000000
      5          8           0       -0.565156    0.310761   -0.617862
      6          1           0       -0.735130    0.789491   -0.618552
 ---------------------------------------------------------------------
                    Distance matrix (angstroms):
                    1          2          3          4          5
     1  C    0.000000
     2  H    0.566220   0.000000
     3  H    0.566220   0.924633   0.000000
     4  H    0.566220   0.924633   0.924633   0.000000
     5  O    0.756723   1.085764   1.085764   1.085764   0.000000
     6  H    1.042761   1.506284   1.225905   1.225198   0.508010
                    6
     6  H    0.000000
 Stoichiometry    CH4O
 Framework group  C1[X(CH4O)]
 Deg. of freedom    12
 Full point group                 C1      NOp   1
 Largest Abelian subgroup         C1      NOp   1
 Largest concise Abelian subgroup C1      NOp   1
                         Standard orientation:                         
 ---------------------------------------------------------------------
 Center     Atomic      Atomic             Coordinates (Angstroms)
 Number     Number       Type             X           Y           Z
 ---------------------------------------------------------------------
      1          6           0        0.357175   -0.010118    0.000000
      2          1           0        0.599721    0.501521   -0.001044
      3          1           0        0.517608   -0.294102    0.462837
      4          1           0        0.517422   -0.295901   -0.461794
      5          8           0       -0.395551    0.067569    0.000000
      6          1           0       -0.613394   -0.391363    0.000000
 ---------------------------------------------------------------------
 Rotational constants (GHZ):    471.8788029     88.2892752     85.1740692
 Standard basis: 6-31+G (6D, 7F)
 There are    34 symmetry adapted cartesian basis functions of A   symmetry.
 There are    34 symmetry adapted basis functions of A   symmetry.
    34 basis functions,    68 primitive gaussians,    34 cartesian basis functions
     9 alpha electrons        9 beta electrons
       nuclear repulsion energy        76.3959466886 Hartrees.
 NAtoms=    6 NActive=    6 NUniq=    6 SFac= 1.00D+00 NAtFMM=   60 NAOKFM=F Big=F
 Integral buffers will be    131072 words long.
 Raffenetti 2 integral format.
 Two-electron integral symmetry is turned on.
 One-electron integrals computed using PRISM.
 NBasis=    34 RedAO= T EigKep=  5.48D-04  NBF=    34
 NBsUse=    34 1.00D-06 EigRej= -1.00D+00 NBFU=    34
 ExpMin= 4.38D-02 ExpMax= 5.48D+03 ExpMxC= 8.25D+02 IAcc=2 IRadAn=         4 AccDes= 0.00D+00
 Harris functional with IExCor= 1009 and IRadAn=       4 diagonalized for initial guess.
 HarFok:  IExCor= 1009 AccDes= 0.00D+00 IRadAn=         4 IDoV= 1 UseB2=F ITyADJ=14
 ICtDFT=  3500011 ScaDFX=  1.000000  1.000000  1.000000  1.000000
 FoFCou: FMM=F IPFlag=           0 FMFlag=      100000 FMFlg1=           0
         NFxFlg=           0 DoJE=T BraDBF=F KetDBF=T FulRan=T
         wScrn=  0.000000 ICntrl=     500 IOpCl=  0 I1Cent=   200000004 NGrid=           0
         NMat0=    1 NMatS0=      1 NMatT0=    0 NMatD0=    1 NMtDS0=    0 NMtDT0=    0
 Petite list used in FoFCou.
 Keep R1 ints in memory in canonical form, NReq=1060842.
 Requested convergence on RMS density matrix=1.00D-08 within 128 cycles.
 Requested convergence on MAX density matrix=1.00D-06.
 Requested convergence on             energy=1.00D-06.
 No special actions if energy rises.
 SCF Done:  E(RBMK) =  -111.380733265     A.U. after   13 cycles
            NFock= 13  Conv=0.22D-08     -V/T= 1.8741
 DoSCS=F DFT=T ScalE2(SS,OS)=  1.000000  1.000000
 Range of M.O.s used for correlation:     1    34
 NBasis=    34 NAE=     9 NBE=     9 NFC=     0 NFV=     0
 NROrb=     34 NOA=     9 NOB=     9 NVA=    25 NVB=    25

 **** Warning!!: The largest alpha MO coefficient is  0.23760149D+02

 Symmetrizing basis deriv contribution to polar:
 IMax=3 JMax=2 DiffMx= 0.00D+00
 G2DrvN: will do     7 centers at a time, making    1 passes.
 Calling FoFCou, ICntrl=  3107 FMM=F I1Cent=   0 AccDes= 0.00D+00.
 End of G2Drv F.D. properties file   721 does not exist.
 End of G2Drv F.D. properties file   722 does not exist.
 End of G2Drv F.D. properties file   788 does not exist.
          IDoAtm=111111
          Differentiating once with respect to nuclear coordinates.
 Keep R1 ints in memory in canonical form, NReq=1038583.
          There are    21 degrees of freedom in the 1st order CPHF.  IDoFFX=6 NUNeed=     0.
     16 vectors produced by pass  0 Test12= 1.07D-15 4.76D-09 XBig12= 6.32D-01 3.34D-01.
 AX will form    16 AO Fock derivatives at one time.
     15 vectors produced by pass  1 Test12= 1.07D-15 4.76D-09 XBig12= 2.38D-02 4.58D-02.
     15 vectors produced by pass  2 Test12= 1.07D-15 4.76D-09 XBig12= 2.59D-04 4.36D-03.
     15 vectors produced by pass  3 Test12= 1.07D-15 4.76D-09 XBig12= 1.14D-06 3.48D-04.
     15 vectors produced by pass  4 Test12= 1.07D-15 4.76D-09 XBig12= 1.89D-09 1.03D-05.
     15 vectors produced by pass  5 Test12= 1.07D-15 4.76D-09 XBig12= 2.13D-12 3.83D-07.
      1 vectors produced by pass  6 Test12= 1.07D-15 4.76D-09 XBig12= 1.64D-15 8.91D-09.
 InvSVY:  IOpt=1 It=  1 EMax= 1.78D-15
 Solved reduced A of dimension    92 with    16 vectors.
 End of Minotr F.D. properties file   721 does not exist.
 End of Minotr F.D. properties file   722 does not exist.
 End of Minotr F.D. properties file   788 does not exist.

 **********************************************************************

            Population analysis using the SCF density.

 **********************************************************************

 Orbital symmetries:
       Occupied  (A) (A) (A) (A) (A) (A) (A) (A) (A)
       Virtual   (A) (A) (A) (A) (A) (A) (A) (A) (A) (A) (A) (A)
                 (A) (A) (A) (A) (A) (A) (A) (A) (A) (A) (A) (A)
                 (A)
 The electronic state is 1-A.
 Alpha  occ. eigenvalues --  -19.56472 -10.63330  -1.62125  -1.06674  -0.91507
 Alpha  occ. eigenvalues --   -0.84450  -0.71088  -0.29292  -0.20181
 Alpha virt. eigenvalues --    0.03887   0.07126   0.07250   0.08221   0.22567
 Alpha virt. eigenvalues --    0.25309   0.27044   0.31766   0.38840   0.39229
 Alpha virt. eigenvalues --    0.44807   0.51632   0.56486   0.59847   0.64063
 Alpha virt. eigenvalues --    1.12601   1.17538   1.18508   1.25100   1.91894
 Alpha virt. eigenvalues --    2.07347   2.12416   2.18459   2.61916   4.44016
          Condensed to atoms (all electrons):
               1          2          3          4          5          6
     1  C   13.487601  -1.342424  -2.115237  -2.113646  -1.888787  -1.148163
     2  H   -1.342424   1.716947   0.382451   0.382981  -0.077509   0.194055
     3  H   -2.115237   0.382451   2.406753   0.494772   0.119394   0.194397
     4  H   -2.113646   0.382981   0.494772   2.404503   0.120308   0.193296
     5  O   -1.888787  -0.077509   0.119394   0.120308   9.304945   0.308448
     6  H   -1.148163   0.194055   0.194397   0.193296   0.308448   1.270578
 Mulliken charges:
               1
     1  C    1.120655
     2  H   -0.256500
     3  H   -0.482530
     4  H   -0.482214
     5  O    0.113201
     6  H   -0.012612
 Sum of Mulliken charges =   0.00000
 Mulliken charges with hydrogens summed into heavy atoms:
               1
     1  C   -0.100589
     5  O    0.100589
 APT charges:
               1
     1  C    1.395168
     2  H   -0.131718
     3  H   -0.400756
     4  H   -0.400382
     5  O   -0.666559
     6  H    0.204247
 Sum of APT charges =   0.00000
 APT charges with hydrogens summed into heavy atoms:
               1
     1  C    0.462312
     5  O   -0.462312
 Electronic spatial extent (au):  <R**2>=             41.0299
 Charge=              0.0000 electrons
 Dipole moment (field-independent basis, Debye):
    X=              0.3595    Y=             -1.6346    Z=             -0.0003  Tot=              1.6736
 Quadrupole moment (field-independent basis, Debye-Ang):
   XX=            -12.8729   YY=            -10.2481   ZZ=            -11.2579
   XY=              1.6730   XZ=             -0.0009   YZ=             -0.0004
 Traceless Quadrupole moment (field-independent basis, Debye-Ang):
   XX=             -1.4132   YY=              1.2115   ZZ=              0.2017
   XY=              1.6730   XZ=             -0.0009   YZ=             -0.0004
 Octapole moment (field-independent basis, Debye-Ang**2):
  XXX=             -0.2105  YYY=             -1.1968  ZZZ=             -0.0018  XYY=             -0.3958
  XXY=             -1.3837  XXZ=             -0.0006  XZZ=             -0.3248  YZZ=             -0.1439
  YYZ=              0.0010  XYZ=              0.0001
 Hexadecapole moment (field-independent basis, Debye-Ang**3):
 XXXX=            -23.6411 YYYY=             -9.6122 ZZZZ=            -11.4259 XXXY=              1.7285
 XXXZ=             -0.0014 YYYX=              1.4369 YYYZ=             -0.0012 ZZZX=             -0.0031
 ZZZY=             -0.0004 XXYY=             -6.1348 XXZZ=             -6.8995 YYZZ=             -3.5914
 XXYZ=              0.0001 YYXZ=              0.0010 ZZXY=              0.8886
 N-N= 7.639594668858D+01 E-N=-4.236303332819D+02  KE= 1.274210461343D+02
  Exact polarizability:   0.000   0.000   0.000   0.000   0.000   0.000
 Approx polarizability:   8.113  -0.775   5.512   0.003   0.002   7.662
 Calling FoFJK, ICntrl=    100147 FMM=F ISym2X=0 I1Cent= 0 IOpClX= 0 NMat=1 NMatS=1 NMatT=0.
 ***** Axes restored to original set *****
 -------------------------------------------------------------------
 Center     Atomic                   Forces (Hartrees/Bohr)
 Number     Number              X              Y              Z
 -------------------------------------------------------------------
      1        6          -0.833652661   -1.359992065    2.146995651
      2        1           0.625561013   -2.040736462    0.156713179
      3        1           0.639965640    0.874655095    1.876426109
      4        1          -2.157641156   -0.114465941    0.163169813
      5        8           2.657298745   -0.326596167   -4.140487862
      6        1          -0.931531581    2.967135539   -0.202816890
 -------------------------------------------------------------------
 Cartesian Forces:  Max     4.140487862 RMS     1.750391252
 FormGI is forming the generalized inverse of G from B-inverse, IUseBI=4.

 GradGradGradGradGradGradGradGradGradGradGradGradGradGradGradGradGradGrad
 Berny optimization.
 Internal  Forces:  Max     5.366295225 RMS     1.869568263
 Search for a local minimum.
 Step number   1 out of a maximum of   25
 All quantities printed in internal units (Hartrees-Bohrs-Radians)
 Mixed Optimization -- RFO/linear search
 Second derivative matrix not updated -- analytic derivatives used.
 The second derivative matrix:
                          R1        R2        R3        R4        R5
           R1           7.00138
           R2          -0.03450   6.92602
           R3          -0.03453  -0.03399   6.92554
           R4           0.15783   0.22075   0.22059  15.91302
           R5          -0.00170   0.01162   0.01164  -0.02420  12.05344
           A1           0.00883   0.01314  -0.01283  -0.20699   0.00389
           A2           0.00890  -0.01282   0.01292  -0.20687   0.00390
           A3           0.01641  -0.01749  -0.01751   0.17832   0.00859
           A4          -0.00825   0.01205   0.01211  -0.21110   0.00807
           A5          -0.01299   0.03039  -0.02527   0.22322  -0.01217
           A6          -0.01290  -0.02527   0.03059   0.22341  -0.01228
           A7          -0.00884   0.01033   0.01036   0.36606   0.01929
           D1           0.00009  -0.01597   0.01590   0.00020  -0.00005
           D2           0.01300   0.00802  -0.02602  -0.00742   0.00251
           D3          -0.01296   0.02591  -0.00793   0.00754  -0.00257
                          A1        A2        A3        A4        A5
           A1           0.17463
           A2           0.05525   0.17457
           A3          -0.10801  -0.10803   0.47618
           A4           0.05956   0.05965  -0.05213   0.17534
           A5          -0.12907  -0.05235  -0.10399  -0.12117   0.52819
           A6          -0.05237  -0.12908  -0.10402  -0.12126  -0.12160
           A7          -0.01394  -0.01391   0.00619  -0.00651   0.01404
           D1          -0.03449   0.03445   0.00001   0.00000  -0.09977
           D2           0.03422   0.00390   0.09564  -0.03317   0.00191
           D3          -0.00394  -0.03415  -0.09558   0.03313   0.10250
                          A6        A7        D1        D2        D3
           A6           0.52833
           A7           0.01414   0.51785
           D1           0.09979   0.00009   0.07360
           D2          -0.10250  -0.00460  -0.02973   0.07192
           D3          -0.00195   0.00467  -0.02971  -0.03030   0.07184
 ITU=  0
     Eigenvalues ---    0.01249   0.16091   0.16462   0.50506   0.56277
     Eigenvalues ---    0.65296   0.70644   6.86002   6.96062   7.02014
     Eigenvalues ---   12.05342  15.95238
 RFO step:  Lambda=-3.40331667D+00 EMin= 1.24903700D-02
 Linear search not attempted -- first point.
 Maximum step size (   0.300) exceeded in Quadratic search.
    -- Step size scaled by   0.613
 Iteration  1 RMS(Cart)=  0.09114099 RMS(Int)=  0.00071993
 Iteration  2 RMS(Cart)=  0.00063644 RMS(Int)=  0.00002010
 Iteration  3 RMS(Cart)=  0.00000040 RMS(Int)=  0.00002010
 Variable       Old X    -DE/DX   Delta X   Delta X   Delta X     New X
                                 (Linear)    (Quad)   (Total)
    R1        1.07000   2.13255   0.00000   0.12396   0.12396   1.19396
    R2        1.07000   2.15773   0.00000   0.12513   0.12513   1.19513
    R3        1.07000   2.15763   0.00000   0.12514   0.12514   1.19514
    R4        1.43000   5.36630   0.00000   0.16566   0.16566   1.59566
    R5        0.96000   3.10810   0.00000   0.12329   0.12329   1.08329
    A1        1.91063  -0.10657   0.00000  -0.00819  -0.00821   1.90242
    A2        1.91063  -0.10656   0.00000  -0.00819  -0.00821   1.90242
    A3        1.91063   0.08700   0.00000   0.00638   0.00635   1.91699
    A4        1.91063  -0.09612   0.00000  -0.00658  -0.00662   1.90401
    A5        1.91063   0.11114   0.00000   0.00830   0.00826   1.91890
    A6        1.91063   0.11112   0.00000   0.00828   0.00825   1.91888
    A7        1.91114   0.22025   0.00000   0.01782   0.01782   1.92896
    D1        3.13964   0.00003   0.00000   0.00000   0.00000   3.13963
    D2       -1.04915  -0.00917   0.00000  -0.00104  -0.00105  -1.05021
    D3        1.04524   0.00922   0.00000   0.00105   0.00106   1.04630
         Item               Value     Threshold  Converged?
 Maximum Force            5.366295     0.000450     NO 
 RMS     Force            1.869568     0.000300     NO 
 Maximum Displacement     0.164689     0.001800     NO 
 RMS     Displacement     0.091437     0.001200     NO 
 Predicted change in Energy=-1.599578D+00
 GradGradGradGradGradGradGradGradGradGradGradGradGradGradGradGradGradGrad

                          Input orientation:                          
 ---------------------------------------------------------------------
 Center     Atomic      Atomic             Coordinates (Angstroms)
 Number     Number       Type             X           Y           Z
 ---------------------------------------------------------------------
      1          6           0       -0.819791   -0.064038    0.014384
      2          1           0       -0.610697   -0.660245    0.017139
      3          1           0       -0.610928    0.229818    0.534000
      4          1           0       -1.452204   -0.067604    0.018827
      5          8           0       -0.538852    0.334930   -0.674739
      6          1           0       -0.726162    0.876641   -0.683708
 ---------------------------------------------------------------------
                    Distance matrix (angstroms):
                    1          2          3          4          5
     1  C    0.000000
     2  H    0.631815   0.000000
     3  H    0.632437   1.029251   0.000000
     4  H    0.632439   1.029252   1.030344   0.000000
     5  O    0.844389   1.214179   1.215440   1.215434   0.000000
     6  H    1.175150   1.693085   1.383645   1.382856   0.573251
                    6
     6  H    0.000000
 Stoichiometry    CH4O
 Framework group  C1[X(CH4O)]
 Deg. of freedom    12
 Full point group                 C1      NOp   1
 Largest Abelian subgroup         C1      NOp   1
 Largest concise Abelian subgroup C1      NOp   1
                         Standard orientation:                         
 ---------------------------------------------------------------------
 Center     Atomic      Atomic             Coordinates (Angstroms)
 Number     Number       Type             X           Y           Z
 ---------------------------------------------------------------------
      1          6           0        0.398421   -0.011691    0.000001
      2          1           0        0.673406    0.557143   -0.001172
      3          1           0        0.582257   -0.328203    0.515754
      4          1           0        0.582038   -0.330221   -0.514588
      5          8           0       -0.441397    0.076057    0.000000
      6          1           0       -0.697054   -0.437028    0.000007
 ---------------------------------------------------------------------
 Rotational constants (GHZ):    379.7020177     70.5922206     68.1085022
 Standard basis: 6-31+G (6D, 7F)
 There are    34 symmetry adapted cartesian basis functions of A   symmetry.
 There are    34 symmetry adapted basis functions of A   symmetry.
    34 basis functions,    68 primitive gaussians,    34 cartesian basis functions
     9 alpha electrons        9 beta electrons
       nuclear repulsion energy        68.3065719883 Hartrees.
 NAtoms=    6 NActive=    6 NUniq=    6 SFac= 1.00D+00 NAtFMM=   60 NAOKFM=F Big=F
 Integral buffers will be    131072 words long.
 Raffenetti 2 integral format.
 Two-electron integral symmetry is turned on.
 One-electron integrals computed using PRISM.
 NBasis=    34 RedAO= T EigKep=  9.60D-04  NBF=    34
 NBsUse=    34 1.00D-06 EigRej= -1.00D+00 NBFU=    34
 Initial guess from the checkpoint file:  "moh-x0-au.chk"
 B after Tr=     0.000000    0.000000    0.000000
         Rot=    1.000000    0.000007   -0.000001    0.000978 Ang=   0.11 deg.
 ExpMin= 4.38D-02 ExpMax= 5.48D+03 ExpMxC= 8.25D+02 IAcc=2 IRadAn=         4 AccDes= 0.00D+00
 Harris functional with IExCor= 1009 and IRadAn=       4 diagonalized for initial guess.
 HarFok:  IExCor= 1009 AccDes= 0.00D+00 IRadAn=         4 IDoV= 1 UseB2=F ITyADJ=14
 ICtDFT=  3500011 ScaDFX=  1.000000  1.000000  1.000000  1.000000
 FoFCou: FMM=F IPFlag=           0 FMFlag=      100000 FMFlg1=           0
         NFxFlg=           0 DoJE=T BraDBF=F KetDBF=T FulRan=T
         wScrn=  0.000000 ICntrl=     500 IOpCl=  0 I1Cent=   200000004 NGrid=           0
         NMat0=    1 NMatS0=      1 NMatT0=    0 NMatD0=    1 NMtDS0=    0 NMtDT0=    0
 Petite list used in FoFCou.
 Keep R1 ints in memory in canonical form, NReq=1060842.
 Requested convergence on RMS density matrix=1.00D-08 within 128 cycles.
 Requested convergence on MAX density matrix=1.00D-06.
 Requested convergence on             energy=1.00D-06.
 No special actions if energy rises.
 SCF Done:  E(RBMK) =  -113.050086212     A.U. after   11 cycles
            NFock= 11  Conv=0.37D-08     -V/T= 1.9104
 Calling FoFJK, ICntrl=      2127 FMM=F ISym2X=0 I1Cent= 0 IOpClX= 0 NMat=1 NMatS=1 NMatT=0.
 ***** Axes restored to original set *****
 -------------------------------------------------------------------
 Center     Atomic                   Forces (Hartrees/Bohr)
 Number     Number              X              Y              Z
 -------------------------------------------------------------------
      1        6          -0.448081054   -0.742338816    1.160688116
      2        1           0.415162337   -1.353717936    0.103618522
      3        1           0.423736897    0.574040633    1.245746381
      4        1          -1.428941967   -0.080975440    0.111147268
      5        8           1.599207520   -0.244901172   -2.463836664
      6        1          -0.561083733    1.847892732   -0.157363622
 -------------------------------------------------------------------
 Cartesian Forces:  Max     2.463836664 RMS     1.071827437

 GradGradGradGradGradGradGradGradGradGradGradGradGradGradGradGradGradGrad
 Berny optimization.
 Using GEDIIS/GDIIS optimizer.
 FormGI is forming the generalized inverse of G from B-inverse, IUseBI=4.
 Internal  Forces:  Max     3.241998918 RMS     1.165994212
 Search for a local minimum.
 Step number   2 out of a maximum of   25
 All quantities printed in internal units (Hartrees-Bohrs-Radians)
 Mixed Optimization -- RFO/linear search
 Update second derivatives using D2CorX and points    1    2
 DE= -1.67D+00 DEPred=-1.60D+00 R= 1.04D+00
 TightC=F SS=  1.41D+00  RLast= 3.00D-01 DXNew= 5.0454D-01 9.0001D-01
 Trust test= 1.04D+00 RLast= 3.00D-01 DXMaxT set to 5.05D-01
 The second derivative matrix:
                          R1        R2        R3        R4        R5
           R1           6.86322
           R2          -0.17350   6.78619
           R3          -0.17350  -0.17379   6.78577
           R4          -0.34592  -0.28668  -0.28675  14.12998
           R5          -0.25929  -0.24774  -0.24767  -0.94577  11.57897
           A1           0.01311   0.01743  -0.00855  -0.19033   0.01221
           A2           0.01317  -0.00854   0.01720  -0.19021   0.01222
           A3           0.01407  -0.01983  -0.01985   0.16800   0.00364
           A4          -0.00274   0.01759   0.01766  -0.19087   0.01839
           A5          -0.01724   0.02613  -0.02953   0.20638  -0.02054
           A6          -0.01718  -0.02955   0.02630   0.20648  -0.02069
           A7          -0.01960  -0.00050  -0.00046   0.32624  -0.00096
           D1           0.00007  -0.01599   0.01589   0.00015  -0.00008
           D2           0.01313   0.00815  -0.02589  -0.00681   0.00280
           D3          -0.01310   0.02577  -0.00807   0.00691  -0.00288
                          A1        A2        A3        A4        A5
           A1           0.17452
           A2           0.05514   0.17446
           A3          -0.10797  -0.10799   0.47619
           A4           0.05939   0.05948  -0.05204   0.17512
           A5          -0.12897  -0.05225  -0.10402  -0.12100   0.52809
           A6          -0.05226  -0.12897  -0.10405  -0.12109  -0.12170
           A7          -0.01362  -0.01359   0.00602  -0.00609   0.01372
           D1          -0.03449   0.03445   0.00001   0.00000  -0.09977
           D2           0.03422   0.00390   0.09564  -0.03317   0.00191
           D3          -0.00394  -0.03415  -0.09558   0.03313   0.10250
                          A6        A7        D1        D2        D3
           A6           0.52823
           A7           0.01382   0.51702
           D1           0.09979   0.00008   0.07360
           D2          -0.10250  -0.00459  -0.02973   0.07192
           D3          -0.00195   0.00466  -0.02971  -0.03030   0.07184
 ITU=  1  0
 Use linear search instead of GDIIS.
 Linear search step of   0.600 exceeds DXMaxT=   0.505 but not scaled.
 Quartic linear search produced a step of  2.00000.
 Iteration  1 RMS(Cart)=  0.13411833 RMS(Int)=  0.04221362
 Iteration  2 RMS(Cart)=  0.05235920 RMS(Int)=  0.00017032
 Iteration  3 RMS(Cart)=  0.00011072 RMS(Int)=  0.00011587
 Iteration  4 RMS(Cart)=  0.00000002 RMS(Int)=  0.00011587
 Variable       Old X    -DE/DX   Delta X   Delta X   Delta X     New X
                                 (Linear)    (Quad)   (Total)
    R1        1.19396   1.41528   0.24791   0.00000   0.24791   1.44187
    R2        1.19513   1.43017   0.25027   0.00000   0.25027   1.44540
    R3        1.19514   1.43012   0.25027   0.00000   0.25027   1.44541
    R4        1.59566   3.24200   0.33133   0.00000   0.33133   1.92699
    R5        1.08329   1.93205   0.24657   0.00000   0.24657   1.32986
    A1        1.90242  -0.07454  -0.01643   0.00000  -0.01658   1.88584
    A2        1.90242  -0.07453  -0.01643   0.00000  -0.01658   1.88584
    A3        1.91699   0.05861   0.01271   0.00000   0.01255   1.92953
    A4        1.90401  -0.06634  -0.01324   0.00000  -0.01346   1.89055
    A5        1.91890   0.07670   0.01653   0.00000   0.01633   1.93523
    A6        1.91888   0.07667   0.01649   0.00000   0.01630   1.93518
    A7        1.92896   0.15912   0.03564   0.00000   0.03564   1.96460
    D1        3.13963   0.00002  -0.00001   0.00000  -0.00001   3.13963
    D2       -1.05021  -0.00729  -0.00211   0.00000  -0.00216  -1.05237
    D3        1.04630   0.00733   0.00211   0.00000   0.00217   1.04847
         Item               Value     Threshold  Converged?
 Maximum Force            3.241999     0.000450     NO 
 RMS     Force            1.165994     0.000300     NO 
 Maximum Displacement     0.333710     0.001800     NO 
 RMS     Displacement     0.184627     0.001200     NO 
 Predicted change in Energy=-1.088638D+00
 GradGradGradGradGradGradGradGradGradGradGradGradGradGradGradGradGradGrad

                          Input orientation:                          
 ---------------------------------------------------------------------
 Center     Atomic      Atomic             Coordinates (Angstroms)
 Number     Number       Type             X           Y           Z
 ---------------------------------------------------------------------
      1          6           0       -0.824529   -0.099772    0.042838
      2          1           0       -0.575226   -0.820840    0.052015
      3          1           0       -0.576571    0.244840    0.679069
      4          1           0       -1.589118   -0.113128    0.059016
      5          8           0       -0.487049    0.385170   -0.788287
      6          1           0       -0.706143    1.053233   -0.818749
 ---------------------------------------------------------------------
                    Distance matrix (angstroms):
                    1          2          3          4          5
     1  C    0.000000
     2  H    0.763004   0.000000
     3  H    0.764873   1.236476   0.000000
     4  H    0.764877   1.236480   1.240104   0.000000
     5  O    1.019721   1.472530   1.476767   1.476747   0.000000
     6  H    1.444219   2.070633   1.706970   1.706023   0.703731
                    6
     6  H    0.000000
 Stoichiometry    CH4O
 Framework group  C1[X(CH4O)]
 Deg. of freedom    12
 Full point group                 C1      NOp   1
 Largest Abelian subgroup         C1      NOp   1
 Largest concise Abelian subgroup C1      NOp   1
                         Standard orientation:                         
 ---------------------------------------------------------------------
 Center     Atomic      Atomic             Coordinates (Angstroms)
 Number     Number       Type             X           Y           Z
 ---------------------------------------------------------------------
      1          6           0        0.480800   -0.014940    0.000002
      2          1           0        0.822600    0.667223   -0.001429
      3          1           0        0.714513   -0.395829    0.620753
      4          1           0        0.714223   -0.398289   -0.619348
      5          8           0       -0.533225    0.092697   -0.000002
      6          1           0       -0.870337   -0.525036    0.000023
 ---------------------------------------------------------------------
 Rotational constants (GHZ):    262.2659007     47.9863840     46.3276578
 Standard basis: 6-31+G (6D, 7F)
 There are    34 symmetry adapted cartesian basis functions of A   symmetry.
 There are    34 symmetry adapted basis functions of A   symmetry.
    34 basis functions,    68 primitive gaussians,    34 cartesian basis functions
     9 alpha electrons        9 beta electrons
       nuclear repulsion energy        56.3535829904 Hartrees.
 NAtoms=    6 NActive=    6 NUniq=    6 SFac= 1.00D+00 NAtFMM=   60 NAOKFM=F Big=F
 Integral buffers will be    131072 words long.
 Raffenetti 2 integral format.
 Two-electron integral symmetry is turned on.
 One-electron integrals computed using PRISM.
 NBasis=    34 RedAO= T EigKep=  2.31D-03  NBF=    34
 NBsUse=    34 1.00D-06 EigRej= -1.00D+00 NBFU=    34
 Initial guess from the checkpoint file:  "moh-x0-au.chk"
 B after Tr=     0.000000    0.000000    0.000000
         Rot=    0.999999    0.000012   -0.000003    0.001698 Ang=   0.19 deg.
 ExpMin= 4.38D-02 ExpMax= 5.48D+03 ExpMxC= 8.25D+02 IAcc=2 IRadAn=         4 AccDes= 0.00D+00
 Harris functional with IExCor= 1009 and IRadAn=       4 diagonalized for initial guess.
 HarFok:  IExCor= 1009 AccDes= 0.00D+00 IRadAn=         4 IDoV= 1 UseB2=F ITyADJ=14
 ICtDFT=  3500011 ScaDFX=  1.000000  1.000000  1.000000  1.000000
 FoFCou: FMM=F IPFlag=           0 FMFlag=      100000 FMFlg1=           0
         NFxFlg=           0 DoJE=T BraDBF=F KetDBF=T FulRan=T
         wScrn=  0.000000 ICntrl=     500 IOpCl=  0 I1Cent=   200000004 NGrid=           0
         NMat0=    1 NMatS0=      1 NMatT0=    0 NMatD0=    1 NMtDS0=    0 NMtDT0=    0
 Petite list used in FoFCou.
 Keep R1 ints in memory in canonical form, NReq=1060842.
 Requested convergence on RMS density matrix=1.00D-08 within 128 cycles.
 Requested convergence on MAX density matrix=1.00D-06.
 Requested convergence on             energy=1.00D-06.
 No special actions if energy rises.
 SCF Done:  E(RBMK) =  -114.766514394     A.U. after   11 cycles
            NFock= 11  Conv=0.17D-08     -V/T= 1.9586
 Calling FoFJK, ICntrl=      2127 FMM=F ISym2X=0 I1Cent= 0 IOpClX= 0 NMat=1 NMatS=1 NMatT=0.
 ***** Axes restored to original set *****
 -------------------------------------------------------------------
 Center     Atomic                   Forces (Hartrees/Bohr)
 Number     Number              X              Y              Z
 -------------------------------------------------------------------
      1        6          -0.116039050   -0.197874406    0.303881377
      2        1           0.184249676   -0.589685331    0.039587269
      3        1           0.184520519    0.245953710    0.544187143
      4        1          -0.621732123   -0.039119044    0.050427184
      5        8           0.563563437   -0.111834406   -0.853501303
      6        1          -0.194562459    0.692559478   -0.084581670
 -------------------------------------------------------------------
 Cartesian Forces:  Max     0.853501303 RMS     0.400883347

 GradGradGradGradGradGradGradGradGradGradGradGradGradGradGradGradGradGrad
 Berny optimization.
 Using GEDIIS/GDIIS optimizer.
 FormGI is forming the generalized inverse of G from B-inverse, IUseBI=4.
 Internal  Forces:  Max     1.162910184 RMS     0.450517681
 Search for a local minimum.
 Step number   3 out of a maximum of   25
 All quantities printed in internal units (Hartrees-Bohrs-Radians)
 Mixed Optimization -- RFO/linear search
 Update second derivatives using D2CorX and points    2    3
 The second derivative matrix:
                          R1        R2        R3        R4        R5
           R1           6.59396
           R2          -0.44756   6.50724
           R3          -0.44754  -0.45271   6.50687
           R4          -1.28445  -1.24113  -1.24113  10.98248
           R5          -0.74921  -0.74611  -0.74600  -2.61090  10.70217
           A1           0.02185   0.02634   0.00037  -0.15698   0.02910
           A2           0.02191   0.00038   0.02612  -0.15686   0.02912
           A3           0.00703  -0.02701  -0.02704   0.14029  -0.01026
           A4           0.00637   0.02688   0.02694  -0.15730   0.03559
           A5          -0.02839   0.01478  -0.04088   0.16596  -0.04136
           A6          -0.02836  -0.04094   0.01491   0.16597  -0.04156
           A7          -0.03805  -0.01930  -0.01925   0.25799  -0.03588
           D1           0.00006  -0.01600   0.01588   0.00012  -0.00010
           D2           0.01367   0.00870  -0.02534  -0.00479   0.00383
           D3          -0.01364   0.02522  -0.00862   0.00487  -0.00391
                          A1        A2        A3        A4        A5
           A1           0.17431
           A2           0.05492   0.17424
           A3          -0.10781  -0.10784   0.47609
           A4           0.05914   0.05923  -0.05185   0.17484
           A5          -0.12864  -0.05192  -0.10427  -0.12064   0.52765
           A6          -0.05193  -0.12865  -0.10430  -0.12074  -0.12214
           A7          -0.01311  -0.01308   0.00564  -0.00552   0.01301
           D1          -0.03448   0.03445   0.00001   0.00000  -0.09977
           D2           0.03420   0.00388   0.09565  -0.03319   0.00193
           D3          -0.00393  -0.03413  -0.09559   0.03315   0.10248
                          A6        A7        D1        D2        D3
           A6           0.52778
           A7           0.01310   0.51588
           D1           0.09979   0.00008   0.07360
           D2          -0.10248  -0.00456  -0.02973   0.07192
           D3          -0.00197   0.00463  -0.02971  -0.03030   0.07184
 ITU=  0  1  0
 Use linear search instead of GDIIS.
 Linear search step of   1.200 exceeds DXMaxT=   0.505 scaled by   0.841
 Quartic linear search produced a step of  1.68180.
 Iteration  1 RMS(Cart)=  0.14089238 RMS(Int)=  0.14540125
 Iteration  2 RMS(Cart)=  0.13234947 RMS(Int)=  0.04162759
 Iteration  3 RMS(Cart)=  0.04961343 RMS(Int)=  0.00036450
 Iteration  4 RMS(Cart)=  0.00016743 RMS(Int)=  0.00032093
 Iteration  5 RMS(Cart)=  0.00000005 RMS(Int)=  0.00032093
 Variable       Old X    -DE/DX   Delta X   Delta X   Delta X     New X
                                 (Linear)    (Quad)   (Total)
    R1        1.44187   0.61794   0.41694   0.00000   0.41694   1.85881
    R2        1.44540   0.62330   0.42090   0.00000   0.42090   1.86630
    R3        1.44541   0.62326   0.42091   0.00000   0.42091   1.86631
    R4        1.92699   1.16291   0.55723   0.00000   0.55723   2.48422
    R5        1.32986   0.72164   0.41469   0.00000   0.41469   1.74455
    A1        1.88584  -0.03236  -0.02788   0.00000  -0.02828   1.85756
    A2        1.88584  -0.03236  -0.02788   0.00000  -0.02828   1.85757
    A3        1.92953   0.01981   0.02110   0.00000   0.02067   1.95021
    A4        1.89055  -0.02909  -0.02264   0.00000  -0.02325   1.86730
    A5        1.93523   0.03486   0.02746   0.00000   0.02691   1.96214
    A6        1.93518   0.03487   0.02741   0.00000   0.02686   1.96203
    A7        1.96460   0.08215   0.05994   0.00000   0.05994   2.02454
    D1        3.13963   0.00001  -0.00001   0.00000  -0.00001   3.13962
    D2       -1.05237  -0.00487  -0.00364   0.00000  -0.00380  -1.05617
    D3        1.04847   0.00489   0.00365   0.00000   0.00381   1.05228
         Item               Value     Threshold  Converged?
 Maximum Force            1.162910     0.000450     NO 
 RMS     Force            0.450518     0.000300     NO 
 Maximum Displacement     0.573032     0.001800     NO 
 RMS     Displacement     0.315652     0.001200     NO 
 Predicted change in Energy=-5.168398D-01
 GradGradGradGradGradGradGradGradGradGradGradGradGradGradGradGradGradGrad

                          Input orientation:                          
 ---------------------------------------------------------------------
 Center     Atomic      Atomic             Coordinates (Angstroms)
 Number     Number       Type             X           Y           Z
 ---------------------------------------------------------------------
      1          6           0       -0.832501   -0.158425    0.089874
      2          1           0       -0.517051   -1.089836    0.112463
      3          1           0       -0.522062    0.262045    0.927841
      4          1           0       -1.818400   -0.196244    0.134010
      5          8           0       -0.402477    0.475495   -0.978481
      6          1           0       -0.666145    1.356469   -1.059803
 ---------------------------------------------------------------------
                    Distance matrix (angstroms):
                    1          2          3          4          5
     1  C    0.000000
     2  H    0.983639   0.000000
     3  H    0.987602   1.578749   0.000000
     4  H    0.987611   1.578760   1.587668   0.000000
     5  O    1.314594   1.911426   1.921958   1.921902   0.000000
     6  H    1.909014   2.716771   2.273599   2.272400   0.923174
                    6
     6  H    0.000000
 Stoichiometry    CH4O
 Framework group  C1[X(CH4O)]
 Deg. of freedom    12
 Full point group                 C1      NOp   1
 Largest Abelian subgroup         C1      NOp   1
 Largest concise Abelian subgroup C1      NOp   1
                         Standard orientation:                         
 ---------------------------------------------------------------------
 Center     Atomic      Atomic             Coordinates (Angstroms)
 Number     Number       Type             X           Y           Z
 ---------------------------------------------------------------------
      1          6           0        0.619014   -0.020629    0.000007
      2          1           0        1.078598    0.849040   -0.001869
      3          1           0        0.945692   -0.507503    0.794734
      4          1           0        0.945271   -0.510713   -0.792931
      5          8           0       -0.688098    0.119430   -0.000004
      6          1           0       -1.178859   -0.662492    0.000058
 ---------------------------------------------------------------------
 Rotational constants (GHZ):    160.8677231     28.4716217     27.5389318
 Standard basis: 6-31+G (6D, 7F)
 There are    34 symmetry adapted cartesian basis functions of A   symmetry.
 There are    34 symmetry adapted basis functions of A   symmetry.
    34 basis functions,    68 primitive gaussians,    34 cartesian basis functions
     9 alpha electrons        9 beta electrons
       nuclear repulsion energy        43.5128056753 Hartrees.
 NAtoms=    6 NActive=    6 NUniq=    6 SFac= 1.00D+00 NAtFMM=   60 NAOKFM=F Big=F
 Integral buffers will be    131072 words long.
 Raffenetti 2 integral format.
 Two-electron integral symmetry is turned on.
 One-electron integrals computed using PRISM.
 NBasis=    34 RedAO= T EigKep=  5.85D-03  NBF=    34
 NBsUse=    34 1.00D-06 EigRej= -1.00D+00 NBFU=    34
 Initial guess from the checkpoint file:  "moh-x0-au.chk"
 B after Tr=     0.000000    0.000000    0.000000
         Rot=    0.999997    0.000018   -0.000004    0.002308 Ang=   0.26 deg.
 ExpMin= 4.38D-02 ExpMax= 5.48D+03 ExpMxC= 8.25D+02 IAcc=2 IRadAn=         4 AccDes= 0.00D+00
 Harris functional with IExCor= 1009 and IRadAn=       4 diagonalized for initial guess.
 HarFok:  IExCor= 1009 AccDes= 0.00D+00 IRadAn=         4 IDoV= 1 UseB2=F ITyADJ=14
 ICtDFT=  3500011 ScaDFX=  1.000000  1.000000  1.000000  1.000000
 FoFCou: FMM=F IPFlag=           0 FMFlag=      100000 FMFlg1=           0
         NFxFlg=           0 DoJE=T BraDBF=F KetDBF=T FulRan=T
         wScrn=  0.000000 ICntrl=     500 IOpCl=  0 I1Cent=   200000004 NGrid=           0
         NMat0=    1 NMatS0=      1 NMatT0=    0 NMatD0=    1 NMtDS0=    0 NMtDT0=    0
 Petite list used in FoFCou.
 Keep R1 ints in memory in canonical form, NReq=1060842.
 Requested convergence on RMS density matrix=1.00D-08 within 128 cycles.
 Requested convergence on MAX density matrix=1.00D-06.
 Requested convergence on             energy=1.00D-06.
 No special actions if energy rises.
 SCF Done:  E(RBMK) =  -115.572632125     A.U. after   10 cycles
            NFock= 10  Conv=0.67D-08     -V/T= 1.9978
 Calling FoFJK, ICntrl=      2127 FMM=F ISym2X=0 I1Cent= 0 IOpClX= 0 NMat=1 NMatS=1 NMatT=0.
 ***** Axes restored to original set *****
 -------------------------------------------------------------------
 Center     Atomic                   Forces (Hartrees/Bohr)
 Number     Number              X              Y              Z
 -------------------------------------------------------------------
      1        6          -0.007751665    0.005559277    0.009415658
      2        1           0.037119261   -0.095192281   -0.005655897
      3        1           0.033251806    0.043277952    0.089049769
      4        1          -0.104179643   -0.005331531    0.004897703
      5        8           0.054422211    0.004261118   -0.091177473
      6        1          -0.012861970    0.047425465   -0.006529760
 -------------------------------------------------------------------
 Cartesian Forces:  Max     0.104179643 RMS     0.050670993

 GradGradGradGradGradGradGradGradGradGradGradGradGradGradGradGradGradGrad
 Berny optimization.
 Using GEDIIS/GDIIS optimizer.
 FormGI is forming the generalized inverse of G from B-inverse, IUseBI=4.
 Internal  Forces:  Max     0.117928192 RMS     0.057059296
 Search for a local minimum.
 Step number   4 out of a maximum of   25
 All quantities printed in internal units (Hartrees-Bohrs-Radians)
 Mixed Optimization -- RFO/linear search
 Update second derivatives using D2CorX and points    3    4
 The second derivative matrix:
                          R1        R2        R3        R4        R5
           R1           6.37034
           R2          -0.67498   6.27596
           R3          -0.67496  -0.68399   6.27558
           R4          -1.96941  -1.93657  -1.93657   8.99016
           R5          -1.12637  -1.12926  -1.12915  -3.72705  10.08051
           A1           0.03095   0.03563   0.00966  -0.12627   0.04550
           A2           0.03101   0.00967   0.03541  -0.12615   0.04551
           A3          -0.00093  -0.03514  -0.03517   0.11287  -0.02481
           A4           0.01481   0.03547   0.03554  -0.12938   0.05059
           A5          -0.03874   0.00423  -0.05143   0.13282  -0.05935
           A6          -0.03870  -0.05148   0.00438   0.13286  -0.05953
           A7          -0.05017  -0.03173  -0.03169   0.21104  -0.05996
           D1           0.00006  -0.01600   0.01588   0.00012  -0.00010
           D2           0.01437   0.00941  -0.02463  -0.00268   0.00499
           D3          -0.01433   0.02452  -0.00932   0.00276  -0.00508
                          A1        A2        A3        A4        A5
           A1           0.17401
           A2           0.05463   0.17394
           A3          -0.10757  -0.10760   0.47590
           A4           0.05885   0.05894  -0.05161   0.17456
           A5          -0.12826  -0.05154  -0.10460  -0.12028   0.52719
           A6          -0.05155  -0.12826  -0.10463  -0.12038  -0.12260
           A7          -0.01288  -0.01285   0.00549  -0.00526   0.01258
           D1          -0.03448   0.03445   0.00001   0.00000  -0.09977
           D2           0.03417   0.00386   0.09568  -0.03322   0.00197
           D3          -0.00390  -0.03410  -0.09561   0.03317   0.10244
                          A6        A7        D1        D2        D3
           A6           0.52732
           A7           0.01267   0.51614
           D1           0.09979   0.00008   0.07360
           D2          -0.10245  -0.00452  -0.02973   0.07192
           D3          -0.00200   0.00459  -0.02971  -0.03030   0.07184
 ITU=  0  0  1  0
 Use linear search instead of GDIIS.
 Linear search step of   1.425 exceeds DXMaxT=   0.505 scaled by   0.708
 Quartic linear search produced a step of  1.00000.
 Iteration  1 RMS(Cart)=  0.14555223 RMS(Int)=  0.14538712
 Iteration  2 RMS(Cart)=  0.13359006 RMS(Int)=  0.04165340
 Iteration  3 RMS(Cart)=  0.04979825 RMS(Int)=  0.00037732
 Iteration  4 RMS(Cart)=  0.00012605 RMS(Int)=  0.00036114
 Iteration  5 RMS(Cart)=  0.00000005 RMS(Int)=  0.00036114
 Variable       Old X    -DE/DX   Delta X   Delta X   Delta X     New X
                                 (Linear)    (Quad)   (Total)
    R1        1.85881   0.10191   0.41694   0.00000   0.41694   2.27575
    R2        1.86630   0.10444   0.42090   0.00000   0.42090   2.28719
    R3        1.86631   0.10442   0.42091   0.00000   0.42091   2.28722
    R4        2.48422   0.11793   0.55723   0.00000   0.55723   3.04145
    R5        1.74455   0.04950   0.41469   0.00000   0.41469   2.15923
    A1        1.85756   0.00297  -0.02828   0.00000  -0.02870   1.82886
    A2        1.85757   0.00297  -0.02828   0.00000  -0.02870   1.82887
    A3        1.95021  -0.01392   0.02067   0.00000   0.02019   1.97040
    A4        1.86730   0.00096  -0.02325   0.00000  -0.02395   1.84335
    A5        1.96214   0.00373   0.02691   0.00000   0.02627   1.98841
    A6        1.96203   0.00376   0.02686   0.00000   0.02622   1.98825
    A7        2.02454   0.00442   0.05994   0.00000   0.05994   2.08449
    D1        3.13962   0.00001  -0.00001   0.00000  -0.00001   3.13960
    D2       -1.05617  -0.00334  -0.00380   0.00000  -0.00399  -1.06016
    D3        1.05228   0.00335   0.00381   0.00000   0.00400   1.05628
         Item               Value     Threshold  Converged?
 Maximum Force            0.117928     0.000450     NO 
 RMS     Force            0.057059     0.000300     NO 
 Maximum Displacement     0.585967     0.001800     NO 
 RMS     Displacement     0.321895     0.001200     NO 
 Predicted change in Energy=-5.446863D-01
 GradGradGradGradGradGradGradGradGradGradGradGradGradGradGradGradGradGrad

                          Input orientation:                          
 ---------------------------------------------------------------------
 Center     Atomic      Atomic             Coordinates (Angstroms)
 Number     Number       Type             X           Y           Z
 ---------------------------------------------------------------------
      1          6           0       -0.840661   -0.215030    0.136039
      2          1           0       -0.460761   -1.357147    0.175024
      3          1           0       -0.471545    0.269152    1.182090
      4          1           0       -2.046059   -0.287471    0.217929
      5          8           0       -0.321386    0.573450   -1.167432
      6          1           0       -0.618224    1.666549   -1.317747
 ---------------------------------------------------------------------
                    Distance matrix (angstroms):
                    1          2          3          4          5
     1  C    0.000000
     2  H    1.204274   0.000000
     3  H    1.210331   1.912890   0.000000
     4  H    1.210346   1.912908   1.928350   0.000000
     5  O    1.609467   2.355593   2.373900   2.373796   0.000000
     6  H    2.388161   3.375781   2.867651   2.866219   1.142617
                    6
     6  H    0.000000
 Stoichiometry    CH4O
 Framework group  C1[X(CH4O)]
 Deg. of freedom    12
 Full point group                 C1      NOp   1
 Largest Abelian subgroup         C1      NOp   1
 Largest concise Abelian subgroup C1      NOp   1
                         Standard orientation:                         
 ---------------------------------------------------------------------
 Center     Atomic      Atomic             Coordinates (Angstroms)
 Number     Number       Type             X           Y           Z
 ---------------------------------------------------------------------
      1          6           0        0.756825   -0.026467    0.000014
      2          1           0        1.340357    1.026985   -0.002321
      3          1           0        1.187599   -0.616054    0.965272
      4          1           0        1.187035   -0.620031   -0.963074
      5          8           0       -0.843567    0.144211   -0.000008
      6          1           0       -1.507409   -0.785782    0.000104
 ---------------------------------------------------------------------
 Rotational constants (GHZ):    110.0240929     18.7395597     18.1697662
 Standard basis: 6-31+G (6D, 7F)
 There are    34 symmetry adapted cartesian basis functions of A   symmetry.
 There are    34 symmetry adapted basis functions of A   symmetry.
    34 basis functions,    68 primitive gaussians,    34 cartesian basis functions
     9 alpha electrons        9 beta electrons
       nuclear repulsion energy        35.4170218447 Hartrees.
 NAtoms=    6 NActive=    6 NUniq=    6 SFac= 1.00D+00 NAtFMM=   60 NAOKFM=F Big=F
 Integral buffers will be    131072 words long.
 Raffenetti 2 integral format.
 Two-electron integral symmetry is turned on.
 One-electron integrals computed using PRISM.
 NBasis=    34 RedAO= T EigKep=  1.00D-02  NBF=    34
 NBsUse=    34 1.00D-06 EigRej= -1.00D+00 NBFU=    34
 Initial guess from the checkpoint file:  "moh-x0-au.chk"
 B after Tr=     0.000000    0.000000    0.000000
         Rot=    0.999998    0.000020   -0.000003    0.001819 Ang=   0.21 deg.
 ExpMin= 4.38D-02 ExpMax= 5.48D+03 ExpMxC= 8.25D+02 IAcc=2 IRadAn=         4 AccDes= 0.00D+00
 Harris functional with IExCor= 1009 and IRadAn=       4 diagonalized for initial guess.
 HarFok:  IExCor= 1009 AccDes= 0.00D+00 IRadAn=         4 IDoV= 1 UseB2=F ITyADJ=14
 ICtDFT=  3500011 ScaDFX=  1.000000  1.000000  1.000000  1.000000
 FoFCou: FMM=F IPFlag=           0 FMFlag=      100000 FMFlg1=           0
         NFxFlg=           0 DoJE=T BraDBF=F KetDBF=T FulRan=T
         wScrn=  0.000000 ICntrl=     500 IOpCl=  0 I1Cent=   200000004 NGrid=           0
         NMat0=    1 NMatS0=      1 NMatT0=    0 NMatD0=    1 NMtDS0=    0 NMtDT0=    0
 Petite list used in FoFCou.
 Keep R1 ints in memory in canonical form, NReq=1060842.
 Requested convergence on RMS density matrix=1.00D-08 within 128 cycles.
 Requested convergence on MAX density matrix=1.00D-06.
 Requested convergence on             energy=1.00D-06.
 No special actions if energy rises.
 SCF Done:  E(RBMK) =  -115.558826267     A.U. after   11 cycles
            NFock= 11  Conv=0.19D-08     -V/T= 2.0131
 Calling FoFJK, ICntrl=      2127 FMM=F ISym2X=0 I1Cent= 0 IOpClX= 0 NMat=1 NMatS=1 NMatT=0.
 ***** Axes restored to original set *****
 -------------------------------------------------------------------
 Center     Atomic                   Forces (Hartrees/Bohr)
 Number     Number              X              Y              Z
 -------------------------------------------------------------------
      1        6          -0.017483324    0.001821338    0.027404636
      2        1          -0.008675892    0.057148561   -0.018827766
      3        1          -0.012031407   -0.014162794   -0.053218163
      4        1           0.054139350    0.009210710   -0.012678192
      5        8          -0.031316727    0.037073753    0.029519616
      6        1           0.015368000   -0.091091569    0.027799868
 -------------------------------------------------------------------
 Cartesian Forces:  Max     0.091091569 RMS     0.036242361

 GradGradGradGradGradGradGradGradGradGradGradGradGradGradGradGradGradGrad
 Berny optimization.
 Using GEDIIS/GDIIS optimizer.
 FormGI is forming the generalized inverse of G from B-inverse, IUseBI=4.
 Internal  Forces:  Max     0.094789195 RMS     0.042830958
 Search for a local minimum.
 Step number   5 out of a maximum of   25
 All quantities printed in internal units (Hartrees-Bohrs-Radians)
 Mixed Optimization -- RFO/linear search
 Update second derivatives using D2CorX and points    5    4
 The second derivative matrix:
                          R1        R2        R3        R4        R5
           R1           6.26334
           R2          -0.78281   6.16731
           R3          -0.78278  -0.79265   6.16694
           R4          -2.24012  -2.20905  -2.20904   8.37558
           R5          -1.29273  -1.29675  -1.29664  -4.11282   9.83939
           A1           0.03698   0.04171   0.01574  -0.10934   0.05572
           A2           0.03704   0.01575   0.04149  -0.10922   0.05572
           A3          -0.00745  -0.04171  -0.04174   0.09576  -0.03525
           A4           0.02000   0.04072   0.04078  -0.11490   0.05933
           A5          -0.04438  -0.00146  -0.05711   0.11750  -0.06864
           A6          -0.04434  -0.05716  -0.00131   0.11755  -0.06882
           A7          -0.05816  -0.03983  -0.03979   0.18025  -0.07767
           D1           0.00006  -0.01600   0.01588   0.00012  -0.00010
           D2           0.01448   0.00953  -0.02451  -0.00212   0.00531
           D3          -0.01446   0.02439  -0.00945   0.00219  -0.00540
                          A1        A2        A3        A4        A5
           A1           0.17371
           A2           0.05433   0.17364
           A3          -0.10722  -0.10724   0.47550
           A4           0.05859   0.05868  -0.05130   0.17434
           A5          -0.12797  -0.05125  -0.10493  -0.12003   0.52691
           A6          -0.05126  -0.12797  -0.10496  -0.12012  -0.12288
           A7          -0.01268  -0.01265   0.00510  -0.00507   0.01232
           D1          -0.03448   0.03445   0.00001   0.00000  -0.09977
           D2           0.03417   0.00386   0.09568  -0.03322   0.00197
           D3          -0.00390  -0.03410  -0.09562   0.03317   0.10244
                          A6        A7        D1        D2        D3
           A6           0.52704
           A7           0.01241   0.51713
           D1           0.09979   0.00008   0.07360
           D2          -0.10245  -0.00455  -0.02973   0.07192
           D3          -0.00201   0.00462  -0.02971  -0.03030   0.07184
 ITU=  0  0  0  1  0
 Use linear search instead of GDIIS.
 Energy rises -- skip Quadratic/GDIIS search.
 Quartic linear search produced a step of -0.59236.
 Iteration  1 RMS(Cart)=  0.14215305 RMS(Int)=  0.04187474
 Iteration  2 RMS(Cart)=  0.05048585 RMS(Int)=  0.00005181
 Iteration  3 RMS(Cart)=  0.00004731 RMS(Int)=  0.00004113
 Iteration  4 RMS(Cart)=  0.00000000 RMS(Int)=  0.00004113
 Variable       Old X    -DE/DX   Delta X   Delta X   Delta X     New X
                                 (Linear)    (Quad)   (Total)
    R1        2.27575  -0.05754  -0.24698   0.00000  -0.24698   2.02877
    R2        2.28719  -0.05533  -0.24932   0.00000  -0.24932   2.03787
    R3        2.28722  -0.05533  -0.24933   0.00000  -0.24933   2.03789
    R4        3.04145  -0.07803  -0.33008   0.00000  -0.33008   2.71137
    R5        2.15923  -0.09479  -0.24564   0.00000  -0.24564   1.91359
    A1        1.82886   0.01693   0.01700   0.00000   0.01705   1.84591
    A2        1.82887   0.01691   0.01700   0.00000   0.01705   1.84592
    A3        1.97040  -0.02545  -0.01196   0.00000  -0.01191   1.95849
    A4        1.84335   0.01265   0.01418   0.00000   0.01426   1.85762
    A5        1.98841  -0.00779  -0.01556   0.00000  -0.01549   1.97292
    A6        1.98825  -0.00774  -0.01553   0.00000  -0.01546   1.97279
    A7        2.08449  -0.03869  -0.03551   0.00000  -0.03551   2.04898
    D1        3.13960   0.00001   0.00001   0.00000   0.00001   3.13961
    D2       -1.06016  -0.00241   0.00236   0.00000   0.00239  -1.05777
    D3        1.05628   0.00241  -0.00237   0.00000  -0.00239   1.05388
         Item               Value     Threshold  Converged?
 Maximum Force            0.094789     0.000450     NO 
 RMS     Force            0.042831     0.000300     NO 
 Maximum Displacement     0.348495     0.001800     NO 
 RMS     Displacement     0.191422     0.001200     NO 
 Predicted change in Energy=-1.399523D-02
 GradGradGradGradGradGradGradGradGradGradGradGradGradGradGradGradGradGrad

                          Input orientation:                          
 ---------------------------------------------------------------------
 Center     Atomic      Atomic             Coordinates (Angstroms)
 Number     Number       Type             X           Y           Z
 ---------------------------------------------------------------------
      1          6           0       -0.835787   -0.181769    0.108782
      2          1           0       -0.493854   -1.199029    0.137686
      3          1           0       -0.500986    0.266139    1.030857
      4          1           0       -1.911418   -0.232482    0.167165
      5          8           0       -0.368996    0.514510   -1.055667
      6          1           0       -0.647593    1.482134   -1.162922
 ---------------------------------------------------------------------
                    Distance matrix (angstroms):
                    1          2          3          4          5
     1  C    0.000000
     2  H    1.073579   0.000000
     3  H    1.078395   1.715961   0.000000
     4  H    1.078407   1.715975   1.727398   0.000000
     5  O    1.434796   2.091865   2.105396   2.105322   0.000000
     6  H    2.102670   2.983932   2.512529   2.511233   1.012628
                    6
     6  H    0.000000
 Stoichiometry    CH4O
 Framework group  C1[X(CH4O)]
 Deg. of freedom    12
 Full point group                 C1      NOp   1
 Largest Abelian subgroup         C1      NOp   1
 Largest concise Abelian subgroup C1      NOp   1
                         Standard orientation:                         
 ---------------------------------------------------------------------
 Center     Atomic      Atomic             Coordinates (Angstroms)
 Number     Number       Type             X           Y           Z
 ---------------------------------------------------------------------
      1          6           0        0.675240   -0.022999    0.000009
      2          1           0        1.184643    0.922028   -0.002052
      3          1           0        1.043024   -0.552165    0.864679
      4          1           0        1.042546   -0.555685   -0.862715
      5          8           0       -0.751398    0.129791   -0.000005
      6          1           0       -1.310464   -0.714519    0.000075
 ---------------------------------------------------------------------
 Rotational constants (GHZ):    136.3419809     23.7683302     23.0113578
 Standard basis: 6-31+G (6D, 7F)
 There are    34 symmetry adapted cartesian basis functions of A   symmetry.
 There are    34 symmetry adapted basis functions of A   symmetry.
    34 basis functions,    68 primitive gaussians,    34 cartesian basis functions
     9 alpha electrons        9 beta electrons
       nuclear repulsion energy        39.8068873782 Hartrees.
 NAtoms=    6 NActive=    6 NUniq=    6 SFac= 1.00D+00 NAtFMM=   60 NAOKFM=F Big=F
 Integral buffers will be    131072 words long.
 Raffenetti 2 integral format.
 Two-electron integral symmetry is turned on.
 One-electron integrals computed using PRISM.
 NBasis=    34 RedAO= T EigKep=  7.48D-03  NBF=    34
 NBsUse=    34 1.00D-06 EigRej= -1.00D+00 NBFU=    34
 Lowest energy guess from the checkpoint file:  "moh-x0-au.chk"
 B after Tr=     0.000000    0.000000    0.000000
         Rot=    1.000000    0.000008   -0.000001    0.000793 Ang=   0.09 deg.
 B after Tr=     0.000000    0.000000    0.000000
         Rot=    0.999999   -0.000012    0.000002   -0.001027 Ang=  -0.12 deg.
 Keep R1 ints in memory in canonical form, NReq=1060842.
 Requested convergence on RMS density matrix=1.00D-08 within 128 cycles.
 Requested convergence on MAX density matrix=1.00D-06.
 Requested convergence on             energy=1.00D-06.
 No special actions if energy rises.
 SCF Done:  E(RBMK) =  -115.612439801     A.U. after    8 cycles
            NFock=  8  Conv=0.72D-08     -V/T= 2.0058
 Calling FoFJK, ICntrl=      2127 FMM=F ISym2X=0 I1Cent= 0 IOpClX= 0 NMat=1 NMatS=1 NMatT=0.
 ***** Axes restored to original set *****
 -------------------------------------------------------------------
 Center     Atomic                   Forces (Hartrees/Bohr)
 Number     Number              X              Y              Z
 -------------------------------------------------------------------
      1        6          -0.008940268    0.011541876    0.007857417
      2        1           0.012150427   -0.011264894   -0.013336370
      3        1           0.008217299    0.010957313    0.011028391
      4        1          -0.016898356    0.002055525   -0.004338763
      5        8          -0.000540793    0.024101987   -0.013114330
      6        1           0.006011690   -0.037391806    0.011903656
 -------------------------------------------------------------------
 Cartesian Forces:  Max     0.037391806 RMS     0.014287245

 GradGradGradGradGradGradGradGradGradGradGradGradGradGradGradGradGradGrad
 Berny optimization.
 Using GEDIIS/GDIIS optimizer.
 FormGI is forming the generalized inverse of G from B-inverse, IUseBI=4.
 Internal  Forces:  Max     0.038648141 RMS     0.014785088
 Search for a local minimum.
 Step number   6 out of a maximum of   25
 All quantities printed in internal units (Hartrees-Bohrs-Radians)
 Mixed Optimization -- RFO/linear search
 Update second derivatives using D2CorX and points    5    4    6
 The second derivative matrix:
                          R1        R2        R3        R4        R5
           R1           6.28236
           R2          -0.76375   6.18641
           R3          -0.76372  -0.77354   6.18604
           R4          -2.20308  -2.17193  -2.17192   8.44006
           R5          -1.26684  -1.27080  -1.27069  -4.06726   9.87155
           A1           0.03554   0.04027   0.01429  -0.11227   0.05367
           A2           0.03560   0.01430   0.04004  -0.11216   0.05368
           A3          -0.00575  -0.04001  -0.04003   0.09889  -0.03305
           A4           0.01879   0.03950   0.03956  -0.11736   0.05761
           A5          -0.04322  -0.00029  -0.05595   0.11989  -0.06698
           A6          -0.04318  -0.05600  -0.00014   0.11993  -0.06716
           A7          -0.05492  -0.03659  -0.03654   0.18763  -0.07258
           D1           0.00006  -0.01600   0.01587   0.00012  -0.00010
           D2           0.01452   0.00956  -0.02448  -0.00214   0.00530
           D3          -0.01449   0.02436  -0.00948   0.00221  -0.00539
                          A1        A2        A3        A4        A5
           A1           0.17382
           A2           0.05443   0.17375
           A3          -0.10735  -0.10738   0.47565
           A4           0.05868   0.05877  -0.05141   0.17441
           A5          -0.12805  -0.05133  -0.10482  -0.12010   0.52698
           A6          -0.05134  -0.12806  -0.10486  -0.12019  -0.12282
           A7          -0.01291  -0.01288   0.00541  -0.00526   0.01250
           D1          -0.03448   0.03445   0.00001   0.00001  -0.09977
           D2           0.03417   0.00385   0.09568  -0.03322   0.00197
           D3          -0.00389  -0.03410  -0.09562   0.03318   0.10244
                          A6        A7        D1        D2        D3
           A6           0.52711
           A7           0.01259   0.51753
           D1           0.09979   0.00008   0.07360
           D2          -0.10245  -0.00453  -0.02973   0.07192
           D3          -0.00201   0.00461  -0.02971  -0.03030   0.07184
 ITU=  0  0  0  0  1  0
 Use linear search instead of GDIIS.
     Eigenvalues ---    0.01249   0.16080   0.16453   0.49316   0.53168
     Eigenvalues ---    0.56795   0.65125   0.70543   6.96061   7.01018
     Eigenvalues ---    9.10847  13.38181
 RFO step:  Lambda=-2.03080249D-03 EMin= 1.24903681D-02
 Quartic linear search produced a step of -0.00368.
 Iteration  1 RMS(Cart)=  0.01771003 RMS(Int)=  0.00021193
 Iteration  2 RMS(Cart)=  0.00022875 RMS(Int)=  0.00006864
 Iteration  3 RMS(Cart)=  0.00000002 RMS(Int)=  0.00006864
 Variable       Old X    -DE/DX   Delta X   Delta X   Delta X     New X
                                 (Linear)    (Quad)   (Total)
    R1        2.02877   0.01418  -0.00063   0.00366   0.00303   2.03180
    R2        2.03787   0.01653  -0.00063   0.00397   0.00334   2.04121
    R3        2.03789   0.01652  -0.00063   0.00397   0.00334   2.04123
    R4        2.71137  -0.00368  -0.00084   0.00378   0.00294   2.71431
    R5        1.91359  -0.03865  -0.00062  -0.00153  -0.00215   1.91144
    A1        1.84591   0.01043   0.00004   0.01980   0.01972   1.86563
    A2        1.84592   0.01042   0.00004   0.01974   0.01966   1.86558
    A3        1.95849  -0.02059  -0.00003  -0.03515  -0.03531   1.92318
    A4        1.85762   0.00721   0.00004   0.00934   0.00935   1.86697
    A5        1.97292  -0.00240  -0.00004  -0.00451  -0.00463   1.96829
    A6        1.97279  -0.00235  -0.00004  -0.00443  -0.00455   1.96824
    A7        2.04898  -0.01738  -0.00009  -0.03234  -0.03243   2.01655
    D1        3.13961   0.00001   0.00000   0.00046   0.00046   3.14007
    D2       -1.05777  -0.00298   0.00001  -0.00235  -0.00226  -1.06003
    D3        1.05388   0.00298  -0.00001   0.00327   0.00319   1.05708
         Item               Value     Threshold  Converged?
 Maximum Force            0.038648     0.000450     NO 
 RMS     Force            0.014785     0.000300     NO 
 Maximum Displacement     0.031135     0.001800     NO 
 RMS     Displacement     0.017843     0.001200     NO 
 Predicted change in Energy=-1.019108D-03
 GradGradGradGradGradGradGradGradGradGradGradGradGradGradGradGradGradGrad

                          Input orientation:                          
 ---------------------------------------------------------------------
 Center     Atomic      Atomic             Coordinates (Angstroms)
 Number     Number       Type             X           Y           Z
 ---------------------------------------------------------------------
      1          6           0       -0.839512   -0.179990    0.113758
      2          1           0       -0.485127   -1.195065    0.121210
      3          1           0       -0.499997    0.277739    1.031342
      4          1           0       -1.917664   -0.223626    0.163335
      5          8           0       -0.363976    0.502530   -1.057199
      6          1           0       -0.652359    1.467914   -1.146544
 ---------------------------------------------------------------------
                    Distance matrix (angstroms):
                    1          2          3          4          5
     1  C    0.000000
     2  H    1.075184   0.000000
     3  H    1.080161   1.731390   0.000000
     4  H    1.080173   1.731366   1.736255   0.000000
     5  O    1.436352   2.070062   2.105003   2.104982   0.000000
     6  H    2.083020   2.954086   2.486548   2.485575   1.011490
                    6
     6  H    0.000000
 Stoichiometry    CH4O
 Framework group  C1[X(CH4O)]
 Deg. of freedom    12
 Full point group                 C1      NOp   1
 Largest Abelian subgroup         C1      NOp   1
 Largest concise Abelian subgroup C1      NOp   1
                         Standard orientation:                         
 ---------------------------------------------------------------------
 Center     Atomic      Atomic             Coordinates (Angstroms)
 Number     Number       Type             X           Y           Z
 ---------------------------------------------------------------------
      1          6           0        0.676701   -0.023126    0.000008
      2          1           0        1.152873    0.940865   -0.001520
      3          1           0        1.040758   -0.551656    0.868839
      4          1           0        1.040450   -0.554199   -0.867414
      5          8           0       -0.751525    0.129436    0.000006
      6          1           0       -1.282085   -0.731738   -0.000005
 ---------------------------------------------------------------------
 Rotational constants (GHZ):    133.7383455     23.8972041     23.0885458
 Standard basis: 6-31+G (6D, 7F)
 There are    34 symmetry adapted cartesian basis functions of A   symmetry.
 There are    34 symmetry adapted basis functions of A   symmetry.
    34 basis functions,    68 primitive gaussians,    34 cartesian basis functions
     9 alpha electrons        9 beta electrons
       nuclear repulsion energy        39.8137491041 Hartrees.
 NAtoms=    6 NActive=    6 NUniq=    6 SFac= 1.00D+00 NAtFMM=   60 NAOKFM=F Big=F
 Integral buffers will be    131072 words long.
 Raffenetti 2 integral format.
 Two-electron integral symmetry is turned on.
 One-electron integrals computed using PRISM.
 NBasis=    34 RedAO= T EigKep=  7.39D-03  NBF=    34
 NBsUse=    34 1.00D-06 EigRej= -1.00D+00 NBFU=    34
 Initial guess from the checkpoint file:  "moh-x0-au.chk"
 B after Tr=     0.000000    0.000000    0.000000
         Rot=    0.999995   -0.000241    0.000007   -0.003286 Ang=  -0.38 deg.
 ExpMin= 4.38D-02 ExpMax= 5.48D+03 ExpMxC= 8.25D+02 IAcc=2 IRadAn=         4 AccDes= 0.00D+00
 Harris functional with IExCor= 1009 and IRadAn=       4 diagonalized for initial guess.
 HarFok:  IExCor= 1009 AccDes= 0.00D+00 IRadAn=         4 IDoV= 1 UseB2=F ITyADJ=14
 ICtDFT=  3500011 ScaDFX=  1.000000  1.000000  1.000000  1.000000
 FoFCou: FMM=F IPFlag=           0 FMFlag=      100000 FMFlg1=           0
         NFxFlg=           0 DoJE=T BraDBF=F KetDBF=T FulRan=T
         wScrn=  0.000000 ICntrl=     500 IOpCl=  0 I1Cent=   200000004 NGrid=           0
         NMat0=    1 NMatS0=      1 NMatT0=    0 NMatD0=    1 NMtDS0=    0 NMtDT0=    0
 Petite list used in FoFCou.
 Keep R1 ints in memory in canonical form, NReq=1060842.
 Requested convergence on RMS density matrix=1.00D-08 within 128 cycles.
 Requested convergence on MAX density matrix=1.00D-06.
 Requested convergence on             energy=1.00D-06.
 No special actions if energy rises.
 SCF Done:  E(RBMK) =  -115.614195445     A.U. after    8 cycles
            NFock=  8  Conv=0.97D-08     -V/T= 2.0058
 Calling FoFJK, ICntrl=      2127 FMM=F ISym2X=0 I1Cent= 0 IOpClX= 0 NMat=1 NMatS=1 NMatT=0.
 ***** Axes restored to original set *****
 -------------------------------------------------------------------
 Center     Atomic                   Forces (Hartrees/Bohr)
 Number     Number              X              Y              Z
 -------------------------------------------------------------------
      1        6          -0.006124491    0.008342305    0.005128731
      2        1           0.009374265   -0.010191402   -0.009414104
      3        1           0.007460796    0.008988255    0.010097025
      4        1          -0.014959483    0.001048027   -0.003626004
      5        8          -0.003197356    0.027384387   -0.010673448
      6        1           0.007446269   -0.035571573    0.008487800
 -------------------------------------------------------------------
 Cartesian Forces:  Max     0.035571573 RMS     0.013243626

 GradGradGradGradGradGradGradGradGradGradGradGradGradGradGradGradGradGrad
 Berny optimization.
 Using GEDIIS/GDIIS optimizer.
 FormGI is forming the generalized inverse of G from B-inverse, IUseBI=4.
 Internal  Forces:  Max     0.036831612 RMS     0.012794843
 Search for a local minimum.
 Step number   7 out of a maximum of   25
 All quantities printed in internal units (Hartrees-Bohrs-Radians)
 Mixed Optimization -- RFO/linear search
 Update second derivatives using D2CorX and points    5    4    6    7
 DE= -1.76D-03 DEPred=-1.02D-03 R= 1.72D+00
 TightC=F SS=  1.41D+00  RLast= 5.71D-02 DXNew= 8.4853D-01 1.7139D-01
 Trust test= 1.72D+00 RLast= 5.71D-02 DXMaxT set to 5.05D-01
 The second derivative matrix:
                          R1        R2        R3        R4        R5
           R1           6.18453
           R2          -0.87758   6.05397
           R3          -0.87749  -0.90591   6.05375
           R4          -2.18927  -2.15563  -2.15562   8.44426
           R5          -0.99548  -0.95574  -0.95579  -4.11994   9.15441
           A1          -0.02301  -0.02810  -0.05404  -0.11050   0.23074
           A2          -0.02292  -0.05403  -0.02825  -0.11035   0.23057
           A3           0.12438   0.11181   0.11170   0.09112  -0.41782
           A4          -0.02789  -0.01481  -0.01472  -0.11118   0.18763
           A5          -0.02398   0.02205  -0.03362   0.11644  -0.11842
           A6          -0.02421  -0.03396   0.02188   0.11647  -0.11777
           A7           0.04824   0.08388   0.08386   0.18436  -0.38406
           D1           0.00001  -0.01606   0.01581   0.00012   0.00006
           D2           0.03128   0.02910  -0.00495  -0.00368  -0.04301
           D3          -0.03126   0.00482  -0.02901   0.00375   0.04294
                          A1        A2        A3        A4        A5
           A1           0.14547
           A2           0.02607   0.14537
           A3          -0.04040  -0.04040   0.32040
[...]
                           ! Normal Mode     4        !
 --------------------------                            --------------------------
 ! Name  Definition              Value          Relative Weight (%)             !
 --------------------------------------------------------------------------------
 ! A1    A(2,1,3)               -0.0912                  6.3                    !
 ! A2    A(2,1,4)                0.0912                  6.3                    !
 ! A5    A(3,1,5)               -0.3974                 27.5                    !
 ! A6    A(4,1,5)                0.3973                 27.5                    !
 ! D1    D(2,1,5,6)              0.175                  12.1                    !
 ! D2    D(3,1,5,6)             -0.145                  10.0                    !
 ! D3    D(4,1,5,6)             -0.1453                 10.1                    !
 --------------------------------------------------------------------------------
                           ----------------------------
                           ! Normal Mode     5        !
 --------------------------                            --------------------------
 ! Name  Definition              Value          Relative Weight (%)             !
 --------------------------------------------------------------------------------
 ! A1    A(2,1,3)               -0.0743                  4.1                    !
 ! A2    A(2,1,4)               -0.0743                  4.1                    !
 ! A3    A(2,1,5)               -0.3048                 16.7                    !
 ! A4    A(3,1,4)                0.1277                  7.0                    !
 ! A5    A(3,1,5)                0.1497                  8.2                    !
 ! A6    A(4,1,5)                0.15                    8.2                    !
 ! A7    A(1,5,6)               -0.5142                 28.1                    !
 ! D2    D(3,1,5,6)             -0.1927                 10.5                    !
 ! D3    D(4,1,5,6)              0.1926                 10.5                    !
 --------------------------------------------------------------------------------
                           ----------------------------
                           ! Normal Mode     6        !
 --------------------------                            --------------------------
 ! Name  Definition              Value          Relative Weight (%)             !
 --------------------------------------------------------------------------------
 ! R4    R(1,5)                 -0.0744                  3.4                    !
 ! A1    A(2,1,3)               -0.353                  16.2                    !
 ! A2    A(2,1,4)               -0.353                  16.2                    !
 ! A3    A(2,1,5)                0.3343                 15.4                    !
 ! A4    A(3,1,4)               -0.262                  12.0                    !
 ! A5    A(3,1,5)                0.3114                 14.3                    !
 ! A6    A(4,1,5)                0.3113                 14.3                    !
 ! D2    D(3,1,5,6)             -0.0574                  2.6                    !
 ! D3    D(4,1,5,6)              0.0574                  2.6                    !
 --------------------------------------------------------------------------------
                           ----------------------------
                           ! Normal Mode     7        !
 --------------------------                            --------------------------
 ! Name  Definition              Value          Relative Weight (%)             !
 --------------------------------------------------------------------------------
 ! A1    A(2,1,3)               -0.2908                 11.9                    !
 ! A2    A(2,1,4)               -0.294                  12.0                    !
 ! A3    A(2,1,5)                0.1314                  5.4                    !
 ! A4    A(3,1,4)                0.6715                 27.5                    !
 ! A5    A(3,1,5)               -0.1311                  5.4                    !
 ! A6    A(4,1,5)               -0.1304                  5.3                    !
 ! D2    D(3,1,5,6)             -0.3404                 13.9                    !
 ! D3    D(4,1,5,6)              0.3418                 14.0                    !
 --------------------------------------------------------------------------------
                           ----------------------------
                           ! Normal Mode     8        !
 --------------------------                            --------------------------
 ! Name  Definition              Value          Relative Weight (%)             !
 --------------------------------------------------------------------------------
 ! A1    A(2,1,3)               -0.5701                 25.1                    !
 ! A2    A(2,1,4)                0.5685                 25.0                    !
 ! A5    A(3,1,5)                0.1089                  4.8                    !
 ! A6    A(4,1,5)               -0.1096                  4.8                    !
 ! D1    D(2,1,5,6)              0.3955                 17.4                    !
 ! D2    D(3,1,5,6)             -0.2302                 10.1                    !
 ! D3    D(4,1,5,6)             -0.2282                 10.0                    !
 --------------------------------------------------------------------------------
                           ----------------------------
                           ! Normal Mode     9        !
 --------------------------                            --------------------------
 ! Name  Definition              Value          Relative Weight (%)             !
 --------------------------------------------------------------------------------
 ! R1    R(1,2)                 -0.2775                 15.3                    !
 ! R2    R(1,3)                 -0.7016                 38.6                    !
 ! R3    R(1,4)                 -0.7025                 38.7                    !
 --------------------------------------------------------------------------------
                           ----------------------------
                           ! Normal Mode    10        !
 --------------------------                            --------------------------
 ! Name  Definition              Value          Relative Weight (%)             !
 --------------------------------------------------------------------------------
 ! R2    R(1,3)                  0.7804                 42.9                    !
 ! R3    R(1,4)                 -0.7796                 42.9                    !
 ! A5    A(3,1,5)               -0.0501                  2.8                    !
 ! A6    A(4,1,5)                0.0501                  2.8                    !
 --------------------------------------------------------------------------------
                           ----------------------------
                           ! Normal Mode    11        !
 --------------------------                            --------------------------
 ! Name  Definition              Value          Relative Weight (%)             !
 --------------------------------------------------------------------------------
 ! R1    R(1,2)                 -1.0473                 56.8                    !
 ! R2    R(1,3)                  0.2256                 12.2                    !
 ! R3    R(1,4)                  0.2254                 12.2                    !
 ! R5    R(5,6)                 -0.0244                  1.3                    !
 ! A1    A(2,1,3)                0.0257                  1.4                    !
 ! A2    A(2,1,4)                0.0257                  1.4                    !
 ! A3    A(2,1,5)                0.0451                  2.4                    !
 ! A4    A(3,1,4)               -0.0319                  1.7                    !
 ! A5    A(3,1,5)               -0.0294                  1.6                    !
 ! A6    A(4,1,5)               -0.0294                  1.6                    !
 ! A7    A(1,5,6)                0.0374                  2.0                    !
 ! D2    D(3,1,5,6)              0.0423                  2.3                    !
 ! D3    D(4,1,5,6)             -0.0423                  2.3                    !
 --------------------------------------------------------------------------------
                           ----------------------------
                           ! Normal Mode    12        !
 --------------------------                            --------------------------
 ! Name  Definition              Value          Relative Weight (%)             !
 --------------------------------------------------------------------------------
 ! R5    R(5,6)                  1.0601                 90.2                    !
 --------------------------------------------------------------------------------
 ***** Axes restored to original set *****
 -------------------------------------------------------------------
 Center     Atomic                   Forces (Hartrees/Bohr)
 Number     Number              X              Y              Z
 -------------------------------------------------------------------
      1        6          -0.000084685    0.000036051    0.000149946
      2        1           0.000083799   -0.000155971   -0.000045514
      3        1          -0.000105489   -0.000022289   -0.000096854
      4        1           0.000124755    0.000064999    0.000029751
      5        8          -0.000021677    0.000047347   -0.000018308
      6        1           0.000003297    0.000029863   -0.000019021
 -------------------------------------------------------------------
 Cartesian Forces:  Max     0.000155971 RMS     0.000078304
 FormGI is forming the generalized inverse of G from B-inverse, IUseBI=4.

 GradGradGradGradGradGradGradGradGradGradGradGradGradGradGradGradGradGrad
 Berny optimization.
 Internal  Forces:  Max     0.000174433 RMS     0.000075755
 Search for a local minimum.
 Step number   1 out of a maximum of    2
 All quantities printed in internal units (Hartrees-Bohrs-Radians)
 Second derivative matrix not updated -- analytic derivatives used.
 The second derivative matrix:
                          R1        R2        R3        R4        R5
           R1           0.36318
           R2           0.00247   0.34143
           R3           0.00247   0.00325   0.34141
           R4           0.00770   0.01302   0.01302   0.32474
           R5          -0.00219   0.00021   0.00021  -0.00761   0.51493
           A1           0.00719   0.00904  -0.00603  -0.03101  -0.00051
           A2           0.00718  -0.00603   0.00904  -0.03100  -0.00051
           A3           0.00350  -0.00603  -0.00603   0.03620   0.00660
           A4          -0.00507   0.00917   0.00916  -0.03122   0.00101
           A5          -0.00588  -0.00031  -0.00626   0.02834  -0.00317
           A6          -0.00589  -0.00626  -0.00031   0.02830  -0.00318
           A7           0.00213  -0.00035  -0.00035   0.05457   0.02376
           D1           0.00000  -0.00721   0.00721   0.00000   0.00000
           D2           0.00760  -0.00015  -0.00696  -0.00041   0.00167
           D3          -0.00760   0.00696   0.00015   0.00042  -0.00167
                          A1        A2        A3        A4        A5
           A1           0.07557
           A2           0.00349   0.07557
           A3          -0.04075  -0.04076   0.14455
           A4           0.00476   0.00476  -0.00327   0.07634
           A5          -0.03785  -0.00339  -0.02838  -0.04231   0.14259
           A6          -0.00339  -0.03785  -0.02839  -0.04230  -0.03277
           A7          -0.00629  -0.00629   0.02106   0.00051  -0.00430
           D1          -0.02237   0.02237   0.00001   0.00000  -0.01874
           D2           0.02370   0.00028   0.02290  -0.01870  -0.00555
           D3          -0.00028  -0.02369  -0.02290   0.01870   0.01976
                          A6        A7        D1        D2        D3
           A6           0.14257
           A7          -0.00432   0.17242
           D1           0.01874   0.00000   0.02576
           D2          -0.01975   0.00282  -0.01101   0.02822
           D3           0.00554  -0.00281  -0.01101  -0.01461   0.02822
 ITU=  0
     Eigenvalues ---    0.00290   0.09283   0.09420   0.12932   0.15247
     Eigenvalues ---    0.18797   0.19784   0.33990   0.34274   0.36187
     Eigenvalues ---    0.37849   0.51696
 Angle between quadratic step and forces=  43.77 degrees.
 Linear search not attempted -- first point.
 Iteration  1 RMS(Cart)=  0.00039055 RMS(Int)=  0.00000011
 Iteration  2 RMS(Cart)=  0.00000010 RMS(Int)=  0.00000004
 Variable       Old X    -DE/DX   Delta X   Delta X   Delta X     New X
                                 (Linear)    (Quad)   (Total)
    R1        2.06291   0.00017   0.00000   0.00043   0.00043   2.06333
    R2        2.07730  -0.00012   0.00000  -0.00036  -0.00036   2.07695
    R3        2.07730  -0.00012   0.00000  -0.00035  -0.00035   2.07695
    R4        2.73754   0.00007   0.00000   0.00025   0.00025   2.73779
    R5        1.83351   0.00002   0.00000   0.00003   0.00003   1.83354
    A1        1.90468   0.00005   0.00000   0.00052   0.00052   1.90520
    A2        1.90468   0.00005   0.00000   0.00053   0.00053   1.90521
    A3        1.84206  -0.00001   0.00000  -0.00013  -0.00013   1.84193
    A4        1.91482  -0.00007   0.00000  -0.00063  -0.00063   1.91419
    A5        1.94770   0.00000   0.00000  -0.00002  -0.00002   1.94768
    A6        1.94790  -0.00003   0.00000  -0.00021  -0.00021   1.94768
    A7        1.96253   0.00006   0.00000   0.00031   0.00031   1.96284
    D1        3.14115   0.00000   0.00000   0.00046   0.00046  -3.14158
    D2       -1.07523   0.00006   0.00000   0.00100   0.00100  -1.07423
    D3        1.07424  -0.00005   0.00000   0.00002   0.00002   1.07426
         Item               Value     Threshold  Converged?
 Maximum Force            0.000174     0.000450     YES
 RMS     Force            0.000076     0.000300     YES
 Maximum Displacement     0.000800     0.001800     YES
 RMS     Displacement     0.000391     0.001200     YES
 Predicted change in Energy=-1.775097D-07
 Optimization completed.
    -- Stationary point found.
                           ----------------------------
                           !   Optimized Parameters   !
                           ! (Angstroms and Degrees)  !
 --------------------------                            --------------------------
 ! Name  Definition              Value          Derivative Info.                !
 --------------------------------------------------------------------------------
 ! R1    R(1,2)                  1.0916         -DE/DX =    0.0002              !
 ! R2    R(1,3)                  1.0993         -DE/DX =   -0.0001              !
 ! R3    R(1,4)                  1.0993         -DE/DX =   -0.0001              !
 ! R4    R(1,5)                  1.4486         -DE/DX =    0.0001              !
 ! R5    R(5,6)                  0.9703         -DE/DX =    0.0                 !
 ! A1    A(2,1,3)              109.1301         -DE/DX =    0.0001              !
 ! A2    A(2,1,4)              109.13           -DE/DX =    0.0001              !
 ! A3    A(2,1,5)              105.5422         -DE/DX =    0.0                 !
 ! A4    A(3,1,4)              109.711          -DE/DX =   -0.0001              !
 ! A5    A(3,1,5)              111.5951         -DE/DX =    0.0                 !
 ! A6    A(4,1,5)              111.6062         -DE/DX =    0.0                 !
 ! A7    A(1,5,6)              112.4449         -DE/DX =    0.0001              !
 ! D1    D(2,1,5,6)           -180.0256         -DE/DX =    0.0                 !
 ! D2    D(3,1,5,6)            -61.6064         -DE/DX =    0.0001              !
 ! D3    D(4,1,5,6)             61.5495         -DE/DX =    0.0                 !
 --------------------------------------------------------------------------------
 GradGradGradGradGradGradGradGradGradGradGradGradGradGradGradGradGradGrad

 1\1\GINC-CASCADE-047\Freq\RBMK\6-31+G\C1H4O1\FARRUGMA\06-Jul-2022\0\\#
 N Geom=AllCheck Guess=TCheck SCRF=Check GenChk RBMK/6-31+G Freq\\Title
  Card Required\\0,1\C,-0.851950568,-0.1722488613,0.1293392379\H,-0.460
 0676001,-1.1898059295,0.0774769696\H,-0.4825359592,0.3097936883,1.0456
 057911\H,-1.9504274805,-0.2097329335,0.1471357206\O,-0.3601392893,0.49
 41567508,-1.05918699\H,-0.6535146974,1.4173403757,-1.1144679956\\Versi
 on=ES64L-G09RevD.01\State=1-A\HF=-115.6178352\RMSD=6.287e-10\RMSF=7.83
 0e-05\ZeroPoint=0.0517869\Thermal=0.055111\Dipole=-0.5375456,0.3550687
 ,0.6720477\DipoleDeriv=0.3732377,0.0928644,-0.0302135,0.1387605,0.3530
 098,-0.2066269,-0.0567759,-0.1316661,0.5566264,0.0707917,0.0744461,0.0
 129602,0.0513481,-0.0773743,0.0216123,0.0263247,-0.0161551,0.071404,0.
 03276,-0.0618137,-0.0517991,-0.0579427,0.0082975,-0.079451,-0.0339558,
 -0.0322974,-0.174075,-0.1956671,-0.0418217,0.0500065,-0.0104418,0.0608
 057,0.0351833,0.0118135,0.0456466,0.0018591,-0.6488887,-0.19414,-0.073
 9215,-0.2436758,-0.5036721,0.2478318,-0.045318,0.1669609,-0.7857119,0.
 3677664,0.1304649,0.0929673,0.1219516,0.1589335,-0.0185496,0.0979116,-
 0.032489,0.3298974\Polar=15.9920543,0.1290547,17.6161323,-0.6747064,-1
 .3632059,17.5144152\PG=C01 [X(C1H4O1)]\NImag=0\\0.56913064,-0.03895826
 ,0.59062275,0.03771230,0.05657448,0.48409347,-0.09267183,0.10292450,0.
 00375935,0.09425512,0.09621101,-0.29325566,-0.01881110,-0.10397402,0.3
 2205494,0.00764242,-0.02977908,-0.04920337,-0.01046663,0.01316831,0.06
 052893,-0.08801168,-0.04297432,-0.07758238,0.00547596,0.00683581,0.010
 36265,0.08739245,-0.04128890,-0.11217977,-0.10119904,-0.01285838,-0.01
 269727,-0.02622791,0.04848699,0.11423596,-0.07596208,-0.09781075,-0.21
 860884,-0.00215527,-0.00132270,-0.00026682,0.07944780,0.10379263,0.251
 76693,-0.31206478,-0.00258058,-0.00680295,-0.01172168,-0.00148062,-0.0
 0170846,-0.01094010,0.00163093,-0.00022934,0.34129893,-0.00112637,-0.0
 5559411,-0.00301966,0.03231737,0.00250280,0.00087921,-0.01677316,0.001
 28066,-0.00195909,0.00736929,0.05331730,-0.01023869,-0.00127641,-0.051
 12924,0.00265424,-0.00098498,0.00173186,-0.02816874,-0.00058059,0.0016
 2141,-0.00050787,-0.00468065,0.05874478,-0.07775478,0.00012129,0.03598
 756,0.00507372,0.00394840,-0.00820574,0.00607368,0.00337688,-0.0003353
 4,-0.00661610,-0.01999820,0.03565870,0.13193801,-0.02550758,-0.1147358
 7,0.07583145,-0.01604368,-0.01955107,0.03835299,0.00370670,0.00768875,
 -0.00166770,-0.00465582,-0.00195799,0.00869076,-0.11780454,0.58635040,
 0.05081787,0.03400027,-0.15832062,0.00335720,0.00570057,-0.00732823,0.
 01677452,0.02338416,-0.03445817,0.00948560,0.00924108,-0.01211017,-0.0
 7993283,-0.12315839,0.24301205,0.00137244,-0.01853264,0.00692611,-0.00
 041129,-0.00154058,0.00237576,0.00000969,0.00065248,-0.00076577,0.0000
 4373,-0.00178895,0.00060237,-0.05871453,0.16030492,-0.00050236,0.05769
 996,0.01067011,-0.01485734,-0.00937613,-0.00236579,0.00094627,0.003606
 47,0.00071798,0.00167167,-0.00103239,-0.00028321,0.00045135,-0.0011681
 4,0.13035616,-0.45779421,0.05083231,-0.13909523,0.46958225,-0.00997182
 ,0.03829149,-0.00683139,0.00285111,0.00224989,-0.00546237,-0.00083385,
 0.00083074,-0.00005451,-0.00023698,-0.00046089,0.00114136,0.01682765,0
 .00195089,-0.03079486,-0.00863611,-0.04286212,0.04200178\\0.00008468,-
 0.00003605,-0.00014995,-0.00008380,0.00015597,0.00004551,0.00010549,0.
 00002229,0.00009685,-0.00012476,-0.00006500,-0.00002975,0.00002168,-0.
 00004735,0.00001831,-0.00000330,-0.00002986,0.00001902\\\@


 REFRAIN FROM ILLUSIONS, INSIST ON WORK AND NOT WORDS,
 PATIENTLY SEEK DIVINE AND SCIENTIFIC TRUTH.
 LAST WORDS OF MARIA MENDELEEVA TO HER SON DMITRI, C. 1850
 Job cpu time:       0 days  0 hours  0 minutes  8.2 seconds.
 File lengths (MBytes):  RWF=     42 Int=      0 D2E=      0 Chk=      1 Scr=      1
 Normal termination of Gaussian 09 at Wed Jul  6 11:25:21 2022.
